<VTKFile type="UnstructuredGrid" version="0.1" byte_order="LittleEndian">
  <UnstructuredGrid>
    <Piece NumberOfPoints="165" NumberOfCells="128">
      <PointData Scalars="FFID">
        <DataArray type="Int32" Name="FFID" format="ascii">
          63
          64
          65
          66
          67
          89
          95
          103
          127
          152
          153
          160
          164
          172
          198
          200
          210
          213
          216
          218
          223
          225
          227
          229
          233
          237
          242
          244
          247
          248
          254
          255
          257
          261
          263
          267
          269
          271
          272
          274
          281
          283
          285
          289
          292
          294
          296
          299
          300
          304
          307
          313
          321
          322
          324
          326
          328
          329
          335
          336
          337
          339
          343
          345
          346
          354
          357
          361
          365
          369
          372
          374
          378
          380
          386
          387
          389
          392
          393
          395
          399
          400
          401
          402
          407
          409
          413
          418
          419
          420
          421
          424
          427
          429
          431
          439
          440
          444
          448
          450
          452
          453
          457
          458
          460
          462
          463
          466
          469
          470
          479
          494
          495
          496
          498
          504
          507
          510
          515
          520
          521
          522
          523
          524
          526
          528
          532
          534
          537
          538
          540
          542
          544
          548
          550
          552
          553
          554
          555
          560
          566
          572
          577
          578
          579
          580
          583
          584
          586
          589
          592
          593
          594
          598
          600
          602
          603
          606
          608
          614
          616
          619
          625
          626
          627
        </DataArray>
        </PointData>
      <Points>
        <DataArray type="Float32" Name="Points" NumberOfComponents="3" format="ascii" RangeMin="0" RangeMax="1.0">
          -0.000000 1.875000 1.100000
          1.415099 1.415099 1.100000
          0.730284 1.781250 1.100000
          1.781250 0.730284 1.100000
          1.875000 0.000000 1.100000
          0.000000 1.875000 0.000000
          -0.000000 1.875000 -2.400000
          1.875000 0.000000 -1.100000
          1.415099 1.415099 -1.100000
          1.781250 0.730284 -1.100000
          1.875000 0.000000 -0.000000
          0.000000 1.875000 -1.100000
          1.781250 0.730284 -2.400000
          1.781250 0.730284 0.000000
          0.730284 1.781250 -0.000000
          1.875000 0.000000 -2.400000
          0.730284 1.781250 -2.400000
          0.730284 1.781250 -1.100000
          1.415099 1.415099 -0.000000
          1.415099 1.415099 -2.400000
          1.781250 0.730284 2.500000
          0.000000 1.875000 2.500000
          1.875000 0.000000 2.500000
          1.415099 1.415099 2.500000
          0.730284 1.781250 2.500000
          1.875000 0.000000 -3.050000
          1.781250 0.730284 -3.050000
          1.415099 1.415099 -3.050000
          -0.000000 1.875000 -3.050000
          0.730284 1.781250 -3.050000
          1.781250 0.730284 -3.650000
          1.875000 0.000000 -3.650000
          0.000000 1.875000 -3.650000
          0.730284 1.781250 -3.650000
          1.415099 1.415099 -3.650000
          0.730284 1.781250 3.100000
          1.875000 0.000000 3.100000
          1.415099 1.415099 3.100000
          1.781250 0.730284 3.100000
          0.000000 1.875000 3.100000
          1.875000 0.000000 3.700000
          0.730284 1.781250 3.700000
          1.781250 0.730284 3.700000
          -0.000000 1.875000 3.700000
          1.415099 1.415099 3.700000
          0.730284 1.781250 -4.325000
          1.875000 0.000000 -4.325000
          -0.000000 1.875000 -4.325000
          1.415099 1.415099 -4.325000
          1.781250 0.730284 -4.325000
          1.875000 0.000000 4.300000
          1.781250 0.730284 5.700000
          1.781250 0.730284 4.300000
          0.730284 1.781250 5.000000
          1.781250 0.730284 5.000000
          1.875000 -0.000000 5.700000
          1.415099 1.415099 4.300000
          1.415099 1.415099 5.700000
          0.000000 1.875000 4.300000
          1.875000 0.000000 5.000000
          1.415099 1.415099 5.000000
          0.000000 1.875000 5.000000
          0.730284 1.781250 5.700000
          0.730284 1.781250 4.300000
          -0.000000 1.875000 5.700000
          0.000000 1.875000 8.500000
          1.781250 0.730284 8.500000
          1.781250 0.730284 7.100000
          1.875000 0.000000 7.800000
          1.415099 1.415099 6.400000
          1.415099 1.415099 8.500000
          1.415099 1.415099 9.900000
          1.415099 1.415099 7.100000
          1.875000 0.000000 9.200000
          1.875000 0.000000 9.900000
          0.730284 1.781250 6.400000
          0.000000 1.875000 7.800000
          1.875000 0.000000 6.400000
          -0.000000 1.875000 9.900000
          1.415099 1.415099 9.200000
          1.781250 0.730284 7.800000
          1.781250 0.730284 9.900000
          0.730284 1.781250 9.200000
          0.000000 1.875000 9.200000
          1.781250 0.730284 6.400000
          0.730284 1.781250 7.100000
          1.415099 1.415099 7.800000
          0.730284 1.781250 8.500000
          0.000000 1.875000 6.400000
          1.875000 0.000000 7.100000
          0.730284 1.781250 9.900000
          0.000000 1.875000 7.100000
          1.875000 0.000000 8.500000
          0.730284 1.781250 7.800000
          1.781250 0.730284 9.200000
          1.875000 0.000000 12.000000
          0.730284 1.781250 10.600000
          -0.000000 1.875000 12.000000
          1.781250 0.730284 11.300000
          1.781250 0.730284 12.000000
          0.730284 1.781250 12.000000
          1.875000 0.000000 10.600000
          0.730284 1.781250 11.300000
          1.781250 0.730284 10.600000
          1.415099 1.415099 12.000000
          1.875000 0.000000 11.300000
          1.415099 1.415099 11.300000
          1.415099 1.415099 10.600000
          0.000000 1.875000 11.300000
          0.000000 1.875000 10.600000
          1.875000 0.000000 -5.000000
          1.781250 0.730284 -7.800000
          1.781250 0.730284 -5.700000
          1.781250 0.730284 -6.400000
          1.875000 0.000000 -7.100000
          1.875000 0.000000 -12.000000
          1.875000 0.000000 -11.300000
          1.875000 0.000000 -10.600000
          0.000000 1.875000 -11.300000
          1.781250 0.730284 -9.900000
          0.730284 1.781250 -7.800000
          -0.000000 1.875000 -12.000000
          1.875000 0.000000 -9.900000
          0.000000 1.875000 -6.400000
          0.730284 1.781250 -10.600000
          1.781250 0.730284 -7.100000
          0.730284 1.781250 -8.500000
          1.875000 0.000000 -9.200000
          0.730284 1.781250 -7.100000
          1.415099 1.415099 -10.600000
          1.781250 0.730284 -5.000000
          0.730284 1.781250 -11.300000
          1.415099 1.415099 -7.100000
          1.781250 0.730284 -9.200000
          1.875000 0.000000 -8.500000
          1.781250 0.730284 -12.000000
          -0.000000 1.875000 -7.100000
          -0.000000 1.875000 -9.200000
          1.415099 1.415099 -8.500000
          0.000000 1.875000 -10.600000
          -0.000000 1.875000 -5.000000
          1.781250 0.730284 -10.600000
          0.000000 1.875000 -5.700000
          1.415099 1.415099 -5.000000
          0.730284 1.781250 -5.700000
          1.415099 1.415099 -11.300000
          1.875000 0.000000 -5.700000
          0.730284 1.781250 -6.400000
          1.415099 1.415099 -9.200000
          0.730284 1.781250 -9.900000
          1.415099 1.415099 -5.700000
          -0.000000 1.875000 -7.800000
          0.730284 1.781250 -5.000000
          1.415099 1.415099 -12.000000
          -0.000000 1.875000 -9.900000
          1.781250 0.730284 -11.300000
          0.730284 1.781250 -12.000000
          0.730284 1.781250 -9.200000
          0.000000 1.875000 -8.500000
          1.415099 1.415099 -9.900000
          1.875000 0.000000 -7.800000
          1.415099 1.415099 -6.400000
          1.875000 0.000000 -6.400000
          1.781250 0.730284 -8.500000
          1.415099 1.415099 -7.800000
        </DataArray>
      </Points>
        <Cells>
          <DataArray type="Int32" Name="connectivity" format="ascii" RangeMin="0" RangeMax="626">
            1 18 13 3
            13 10 4 3
            18 8 9 13
            18 1 2 14
            1 23 20 3
            1 23 24 2
            4 22 20 3
            13 9 7 10
            14 2 0 5
            14 17 8 18
            2 24 21 0
            5 11 17 14
            11 6 16 17
            15 25 26 12
            26 27 19 12
            17 16 19 8
            19 12 9 8
            7 15 12 9
            19 27 29 16
            6 28 29 16
            21 39 35 24
            20 38 36 22
            24 35 37 23
            20 23 37 38
            26 27 34 30
            26 30 31 25
            28 32 33 29
            29 33 34 27
            30 34 48 49
            30 49 46 31
            32 47 45 33
            33 45 48 34
            38 42 40 36
            37 44 42 38
            39 43 41 35
            35 41 44 37
            41 63 56 44
            40 42 52 50
            43 58 63 41
            44 56 52 42
            45 152 143 48
            47 140 152 45
            49 130 110 46
            49 48 143 130
            75 62 57 69
            54 59 55 51
            54 60 57 51
            63 56 60 53
            56 52 54 60
            52 54 59 50
            58 61 53 63
            53 62 57 60
            57 51 84 69
            53 61 64 62
            51 55 77 84
            62 64 88 75
            96 90 71 107
            82 90 71 79
            81 74 101 103
            91 76 93 85
            94 73 74 81
            70 66 94 79
            88 91 85 75
            68 80 66 92
            87 70 79 82
            90 78 109 96
            84 67 89 77
            82 83 78 90
            72 86 80 67
            76 65 87 93
            71 81 103 107
            67 80 68 89
            84 69 72 67
            86 70 66 80
            65 83 82 87
            66 94 73 92
            75 85 72 69
            93 87 70 86
            85 93 86 72
            94 79 71 81
            106 98 99 104
            96 102 106 107
            103 101 105 98
            100 102 106 104
            96 109 108 102
            98 105 95 99
            102 108 97 100
            103 107 106 98
            147 144 150 161
            124 131 145 129
            163 111 160 134
            155 116 117 141
            124 149 159 129
            135 115 116 155
            159 148 133 119
            126 138 164 120
            131 118 139 124
            138 163 111 164
            132 125 113 161
            139 154 149 124
            113 161 150 112
            150 112 130 143
            125 114 162 113
            144 142 140 152
            112 146 110 130
            135 153 145 155
            111 164 132 125
            152 144 150 143
            141 119 122 117
            113 162 146 112
            156 131 145 153
            120 128 132 164
            111 160 114 125
            154 137 157 149
            127 133 163 134
            119 133 127 122
            156 121 118 131
            128 136 123 147
            145 155 141 129
            149 157 148 159
            157 126 138 148
            147 128 132 161
            147 123 142 144
            137 158 126 157
            141 129 159 119
            148 138 163 133
            120 151 136 128
            158 151 120 126
          </DataArray>
          <DataArray type="Int32" Name="offsets" format="ascii" RangeMin="4" RangeMax="512">
            4 8 12 16 20 24 
            28 32 36 40 44 48 
            52 56 60 64 68 72 
            76 80 84 88 92 96 
            100 104 108 112 116 120 
            124 128 132 136 140 144 
            148 152 156 160 164 168 
            172 176 180 184 188 192 
            196 200 204 208 212 216 
            220 224 228 232 236 240 
            244 248 252 256 260 264 
            268 272 276 280 284 288 
            292 296 300 304 308 312 
            316 320 324 328 332 336 
            340 344 348 352 356 360 
            364 368 372 376 380 384 
            388 392 396 400 404 408 
            412 416 420 424 428 432 
            436 440 444 448 452 456 
            460 464 468 472 476 480 
            484 488 492 496 500 504 
            508 512 
          </DataArray>
          <DataArray type="UInt8" Name="types" format="ascii" RangeMin="9" RangeMax="9">
            9 9 9 9 9 9 
            9 9 9 9 9 9 
            9 9 9 9 9 9 
            9 9 9 9 9 9 
            9 9 9 9 9 9 
            9 9 9 9 9 9 
            9 9 9 9 9 9 
            9 9 9 9 9 9 
            9 9 9 9 9 9 
            9 9 9 9 9 9 
            9 9 9 9 9 9 
            9 9 9 9 9 9 
            9 9 9 9 9 9 
            9 9 9 9 9 9 
            9 9 9 9 9 9 
            9 9 9 9 9 9 
            9 9 9 9 9 9 
            9 9 9 9 9 9 
            9 9 9 9 9 9 
            9 9 9 9 9 9 
            9 9 9 9 9 9 
            9 9 
          </DataArray>
        </Cells>
      </Piece>
    </UnstructuredGrid>
</VTKFile>
