<VTKFile type="UnstructuredGrid" version="0.1" byte_order="LittleEndian">
  <UnstructuredGrid>
    <Piece NumberOfPoints="627" NumberOfCells="365">
      <PointData Scalars="FFID">
        <DataArray type="Int32" Name="FFID" format="ascii">
          1
          2
          3
          4
          5
          6
          7
          8
          9
          10
          11
          12
          13
          14
          15
          16
          17
          18
          19
          20
          21
          22
          23
          24
          25
          26
          27
          28
          29
          30
          31
          32
          33
          34
          35
          36
          37
          38
          39
          40
          41
          42
          43
          44
          45
          46
          47
          48
          49
          50
          51
          52
          53
          54
          55
          56
          57
          58
          59
          60
          61
          62
          63
          64
          65
          66
          67
          68
          69
          70
          71
          72
          73
          74
          75
          76
          77
          78
          79
          80
          81
          82
          83
          84
          85
          86
          87
          88
          89
          90
          91
          92
          93
          94
          95
          96
          97
          98
          99
          100
          101
          102
          103
          104
          105
          106
          107
          108
          109
          110
          111
          112
          113
          114
          115
          116
          117
          118
          119
          120
          121
          122
          123
          124
          125
          126
          127
          128
          129
          130
          131
          132
          133
          134
          135
          136
          137
          138
          139
          140
          141
          142
          143
          144
          145
          146
          147
          148
          149
          150
          151
          152
          153
          154
          155
          156
          157
          158
          159
          160
          161
          162
          163
          164
          165
          166
          167
          168
          169
          170
          171
          172
          173
          174
          175
          176
          177
          178
          179
          180
          181
          182
          183
          184
          185
          186
          187
          188
          189
          190
          191
          192
          193
          194
          195
          196
          197
          198
          199
          200
          201
          202
          203
          204
          205
          206
          207
          208
          209
          210
          211
          212
          213
          214
          215
          216
          217
          218
          219
          220
          221
          222
          223
          224
          225
          226
          227
          228
          229
          230
          231
          232
          233
          234
          235
          236
          237
          238
          239
          240
          241
          242
          243
          244
          245
          246
          247
          248
          249
          250
          251
          252
          253
          254
          255
          256
          257
          258
          259
          260
          261
          262
          263
          264
          265
          266
          267
          268
          269
          270
          271
          272
          273
          274
          275
          276
          277
          278
          279
          280
          281
          282
          283
          284
          285
          286
          287
          288
          289
          290
          291
          292
          293
          294
          295
          296
          297
          298
          299
          300
          301
          302
          303
          304
          305
          306
          307
          308
          309
          310
          311
          312
          313
          314
          315
          316
          317
          318
          319
          320
          321
          322
          323
          324
          325
          326
          327
          328
          329
          330
          331
          332
          333
          334
          335
          336
          337
          338
          339
          340
          341
          342
          343
          344
          345
          346
          347
          348
          349
          350
          351
          352
          353
          354
          355
          356
          357
          358
          359
          360
          361
          362
          363
          364
          365
          366
          367
          368
          369
          370
          371
          372
          373
          374
          375
          376
          377
          378
          379
          380
          381
          382
          383
          384
          385
          386
          387
          388
          389
          390
          391
          392
          393
          394
          395
          396
          397
          398
          399
          400
          401
          402
          403
          404
          405
          406
          407
          408
          409
          410
          411
          412
          413
          414
          415
          416
          417
          418
          419
          420
          421
          422
          423
          424
          425
          426
          427
          428
          429
          430
          431
          432
          433
          434
          435
          436
          437
          438
          439
          440
          441
          442
          443
          444
          445
          446
          447
          448
          449
          450
          451
          452
          453
          454
          455
          456
          457
          458
          459
          460
          461
          462
          463
          464
          465
          466
          467
          468
          469
          470
          471
          472
          473
          474
          475
          476
          477
          478
          479
          480
          481
          482
          483
          484
          485
          486
          487
          488
          489
          490
          491
          492
          493
          494
          495
          496
          497
          498
          499
          500
          501
          502
          503
          504
          505
          506
          507
          508
          509
          510
          511
          512
          513
          514
          515
          516
          517
          518
          519
          520
          521
          522
          523
          524
          525
          526
          527
          528
          529
          530
          531
          532
          533
          534
          535
          536
          537
          538
          539
          540
          541
          542
          543
          544
          545
          546
          547
          548
          549
          550
          551
          552
          553
          554
          555
          556
          557
          558
          559
          560
          561
          562
          563
          564
          565
          566
          567
          568
          569
          570
          571
          572
          573
          574
          575
          576
          577
          578
          579
          580
          581
          582
          583
          584
          585
          586
          587
          588
          589
          590
          591
          592
          593
          594
          595
          596
          597
          598
          599
          600
          601
          602
          603
          604
          605
          606
          607
          608
          609
          610
          611
          612
          613
          614
          615
          616
          617
          618
          619
          620
          621
          622
          623
          624
          625
          626
          627
        </DataArray>
      </PointData>
    <Points>
      <DataArray type="Float32" Name="Points" NumberOfComponents="3" format="ascii" RangeMin="0" RangeMax="1.0">
        -0.000000 0.000000 1.000000
        0.707100 0.000000 0.707100
        0.000000 0.707100 0.707100
        0.577400 0.577400 0.577400
        0.359000 0.861500 0.359000
        -0.000000 0.923900 0.382700
        0.677800 0.677800 0.284800
        0.923900 0.000000 0.382700
        0.861500 0.359000 0.359000
        0.284800 0.677800 0.677800
        0.382700 0.000000 0.923900
        -0.000000 0.382700 0.923900
        0.359000 0.359000 0.861500
        0.677800 0.284800 0.677800
        -0.000000 1.330416 0.551088
        1.240560 0.516960 0.516960
        1.108680 0.000000 0.459240
        0.000000 0.551088 1.330416
        0.976032 0.976032 0.410112
        -0.000000 1.108680 0.459240
        0.848520 0.000000 0.848520
        0.813360 0.341760 0.813360
        0.430800 1.033800 0.430800
        0.813360 0.813360 0.341760
        1.018224 0.000000 1.018224
        0.430800 0.430800 1.033800
        1.033800 0.430800 0.430800
        0.341760 0.813360 0.813360
        1.330416 0.000000 0.551088
        -0.000000 0.000000 1.440000
        0.516960 0.516960 1.240560
        0.692880 0.692880 0.692880
        0.976032 0.410112 0.976032
        0.516960 1.240560 0.516960
        -0.000000 0.000000 1.200000
        0.551088 0.000000 1.330416
        0.831456 0.831456 0.831456
        0.459240 0.000000 1.108680
        0.410112 0.976032 0.976032
        0.000000 0.459240 1.108680
        -0.000000 0.848520 0.848520
        0.000000 1.018224 1.018224
        1.514063 0.620741 0.500000
        1.593750 0.000000 0.500000
        0.000000 1.593750 0.500000
        0.620741 1.514063 0.500000
        1.202834 1.202834 0.500000
        0.976032 0.410112 1.276032
        0.551088 0.000000 1.630416
        0.516960 0.516960 1.540560
        1.018224 0.000000 1.318224
        0.831456 0.831456 1.331456
        0.000000 1.018224 1.518224
        0.410112 0.976032 1.476032
        -0.000000 0.000000 1.740000
        0.000000 0.551088 1.630416
        1.197297 1.197297 1.131456
        1.405486 0.590561 1.076032
        -0.000000 1.466243 1.318224
        1.466243 0.000000 1.118224
        0.590561 1.405486 1.276032
        -0.000000 1.875000 1.100000
        1.415099 1.415099 1.100000
        0.730284 1.781250 1.100000
        1.781250 0.730284 1.100000
        1.875000 0.000000 1.100000
        -0.000000 0.000000 2.100000
        0.468159 1.141897 1.900000
        1.141897 0.468159 1.900000
        0.000000 1.141897 1.900000
        1.032711 1.032711 1.900000
        0.468159 0.468159 2.100000
        -0.000000 0.645948 2.100000
        0.645948 0.000000 2.100000
        1.141897 0.000000 1.900000
        1.381695 0.566473 1.900000
        1.381695 0.000000 1.900000
        1.249580 1.249580 1.900000
        0.566473 1.381695 1.900000
        0.000000 1.381695 1.900000
        0.459240 1.108680 0.000000
        0.258480 0.258480 -1.590560
        0.707100 0.707100 -0.000000
        0.813360 0.341760 -0.813360
        0.000000 0.459240 -1.108680
        -0.000000 0.707100 -0.707100
        -0.000000 0.229620 -1.158680
        0.000000 1.875000 0.000000
        0.258480 0.258480 -1.310560
        0.000000 0.000000 -2.100000
        1.108680 0.000000 -0.459240
        0.707100 0.000000 -2.400000
        0.410112 0.976032 -1.476032
        -0.000000 1.875000 -2.400000
        0.353550 0.000000 -2.400000
        0.191350 0.000000 -0.943900
        1.202834 1.202834 -0.500000
        0.179500 0.179500 -0.931500
        0.861500 0.359000 -0.359000
        1.108680 0.459240 0.000000
        0.551088 0.000000 -1.630416
        1.875000 0.000000 -1.100000
        0.516960 1.240560 -0.516960
        0.430800 1.033800 -0.430800
        0.000000 0.000000 -2.400000
        0.410112 0.976032 -0.976032
        -0.000000 0.191350 -0.973900
        0.692880 0.692880 -0.692880
        0.512480 0.512480 -2.400000
        1.466243 0.000000 -1.118224
        0.000000 0.000000 -1.440000
        1.330416 0.000000 -0.551088
        -0.000000 0.707100 -2.400000
        1.200000 0.000000 -0.000000
        1.250000 0.000000 -2.400000
        0.275544 0.000000 -1.350416
        0.468159 0.468159 -2.100000
        0.516960 0.516960 -1.540560
        -0.000000 1.381695 -1.900000
        -0.000000 0.000000 -2.650000
        1.018224 0.000000 -1.318224
        1.514063 0.620741 -0.500000
        -0.000000 0.848520 -0.848520
        0.000000 0.322974 -2.100000
        -0.000000 0.923900 -0.382700
        1.415099 1.415099 -1.100000
        0.256240 0.256240 -2.650000
        -0.000000 0.382700 -0.923900
        0.831456 0.831456 -0.831456
        1.593750 0.000000 0.000000
        1.593750 0.000000 -0.500000
        1.000000 0.000000 -0.000000
        0.976032 0.976032 -0.410112
        0.359000 0.861500 -0.359000
        -0.000000 1.330416 -0.551088
        -0.000000 0.275544 -1.380416
        1.032711 1.032711 -1.900000
        0.000000 0.645948 -2.100000
        -0.000000 0.551088 -1.330416
        0.382700 0.923900 0.000000
        -0.000000 0.353550 -2.650000
        -0.000000 1.250000 -2.400000
        1.240560 0.516960 -0.516960
        0.459240 0.000000 -1.108680
        -0.000000 1.466243 -1.318224
        0.645948 -0.000000 -2.100000
        -0.000000 1.000000 0.000000
        0.353550 0.000000 -2.650000
        1.018224 0.000000 -1.018224
        0.215400 0.215400 -1.103800
        1.781250 0.730284 -1.100000
        1.875000 0.000000 -0.000000
        0.000000 1.593750 -0.500000
        0.512480 1.250000 -2.400000
        0.516960 0.516960 -1.240560
        0.234080 0.234080 -2.100000
        -0.000000 1.200000 0.000000
        -0.000000 0.000000 -1.200000
        0.000000 1.875000 -1.100000
        1.018224 1.018224 -0.000000
        0.923900 0.382700 0.000000
        0.707100 0.000000 -0.707100
        1.781250 0.730284 -2.400000
        0.430800 0.430800 -1.033800
        0.000000 0.353550 -2.400000
        0.322974 0.000000 -2.100000
        -0.000000 1.108680 -0.459240
        0.359000 0.359000 -0.861500
        0.677800 0.284800 -0.677800
        0.620741 1.514063 -0.500000
        1.781250 0.730284 0.000000
        1.250000 0.512480 -2.400000
        0.566473 1.381695 -1.900000
        0.831456 0.831456 -1.331456
        0.229620 0.000000 -1.128680
        -0.000000 1.141897 -1.900000
        1.141897 0.000000 -1.900000
        -0.000000 0.275544 -1.680416
        0.275544 0.000000 -1.630416
        1.249580 1.249580 -1.900000
        0.577400 0.577400 -0.577400
        1.130478 1.130478 -2.400000
        1.033800 0.430800 -0.430800
        0.256240 0.256240 -2.400000
        1.381695 0.566473 -1.900000
        0.848520 0.000000 -0.848520
        0.976032 0.410112 -0.976032
        1.514063 0.620741 -0.000000
        0.382700 0.000000 -0.923900
        0.813360 0.813360 -0.341760
        -0.000000 1.018224 -1.018224
        0.848520 0.848520 0.000000
        0.923900 0.000000 -0.382700
        0.551088 0.000000 -1.330416
        -0.000000 0.000000 -1.740000
        0.590561 1.405486 -1.276032
        0.730284 1.781250 -0.000000
        0.620741 1.514063 0.000000
        1.875000 0.000000 -2.400000
        1.381695 0.000000 -1.900000
        0.341760 0.813360 -0.813360
        -0.000000 0.551088 -1.630416
        1.330416 0.551088 -0.000000
        -0.000000 1.440000 0.000000
        -0.000000 0.000000 -1.000000
        1.141897 0.468159 -1.900000
        1.405486 0.590561 -1.076032
        1.197297 1.197297 -1.131456
        0.730284 1.781250 -2.400000
        1.202834 1.202834 -0.000000
        0.677800 0.677800 -0.284800
        0.730284 1.781250 -1.100000
        0.000000 1.018224 -1.518224
        0.976032 0.410112 -1.276032
        1.415099 1.415099 -0.000000
        0.468159 1.141897 -1.900000
        1.415099 1.415099 -2.400000
        1.440000 0.000000 -0.000000
        0.284800 0.677800 -0.677800
        0.000000 1.593750 0.000000
        0.551088 1.330416 0.000000
        1.781250 0.730284 2.500000
        1.250000 0.000000 2.500000
        0.000000 1.875000 2.500000
        0.000000 1.250000 2.500000
        1.875000 0.000000 2.500000
        0.707100 0.000000 2.500000
        1.415099 1.415099 2.500000
        0.512480 1.250000 2.500000
        0.000000 0.707100 2.500000
        0.000000 0.000000 2.500000
        0.730284 1.781250 2.500000
        0.512480 0.512480 2.500000
        1.130478 1.130478 2.500000
        1.250000 0.512480 2.500000
        1.875000 0.000000 -3.050000
        0.512480 0.512480 -3.050000
        -0.000000 0.000000 -3.050000
        0.512480 1.250000 -3.050000
        0.707100 0.000000 -3.050000
        1.781250 0.730284 -3.050000
        1.130478 1.130478 -3.050000
        1.415099 1.415099 -3.050000
        1.250000 0.000000 -3.050000
        1.250000 0.512480 -3.050000
        -0.000000 1.875000 -3.050000
        0.730284 1.781250 -3.050000
        -0.000000 1.250000 -3.050000
        -0.000000 0.707100 -3.050000
        1.250000 0.000000 -3.650000
        1.250000 0.512480 -3.650000
        0.512480 0.512480 -3.650000
        1.781250 0.730284 -3.650000
        1.875000 0.000000 -3.650000
        1.130478 1.130478 -3.650000
        0.000000 1.875000 -3.650000
        0.000000 0.000000 -3.650000
        0.000000 1.250000 -3.650000
        0.707100 0.000000 -3.650000
        0.730284 1.781250 -3.650000
        0.000000 0.707100 -3.650000
        1.415099 1.415099 -3.650000
        0.512480 1.250000 -3.650000
        0.707100 0.000000 3.100000
        1.250000 0.512480 3.100000
        0.730284 1.781250 3.100000
        0.000000 1.250000 3.100000
        1.875000 0.000000 3.100000
        0.000000 0.000000 3.100000
        1.415099 1.415099 3.100000
        1.781250 0.730284 3.100000
        0.512480 1.250000 3.100000
        0.000000 1.875000 3.100000
        0.000000 0.707100 3.100000
        1.130478 1.130478 3.100000
        0.512480 0.512480 3.100000
        1.250000 0.000000 3.100000
        1.250000 0.512480 3.700000
        -0.000000 1.250000 3.700000
        1.875000 0.000000 3.700000
        1.130478 1.130478 3.700000
        0.730284 1.781250 3.700000
        1.250000 0.000000 3.700000
        1.781250 0.730284 3.700000
        0.512480 0.512480 3.700000
        0.707100 0.000000 3.700000
        -0.000000 0.707100 3.700000
        -0.000000 1.875000 3.700000
        0.512480 1.250000 3.700000
        -0.000000 0.000000 3.700000
        1.415099 1.415099 3.700000
        1.130478 1.130478 -4.325000
        0.730284 1.781250 -4.325000
        0.000000 1.250000 -4.325000
        1.875000 0.000000 -4.325000
        0.512480 0.512480 -4.325000
        0.512480 1.250000 -4.325000
        -0.000000 1.875000 -4.325000
        1.415099 1.415099 -4.325000
        1.250000 0.512480 -4.325000
        0.707100 0.000000 -4.325000
        -0.000000 0.000000 -4.325000
        1.781250 0.730284 -4.325000
        -0.000000 0.707100 -4.325000
        1.250000 0.000000 -4.325000
        1.875000 0.000000 4.300000
        0.512480 0.512480 5.000000
        0.512480 0.512480 4.300000
        1.250000 0.512480 5.700000
        0.000000 0.000000 5.000000
        -0.000000 1.250000 5.700000
        1.781250 0.730284 5.700000
        0.000000 0.000000 4.300000
        0.707100 0.000000 5.000000
        0.000000 0.707100 5.000000
        0.512480 1.250000 4.300000
        0.512480 1.250000 5.700000
        0.707100 0.000000 4.300000
        1.250000 0.512480 5.000000
        1.781250 0.730284 4.300000
        0.730284 1.781250 5.000000
        1.250000 0.000000 5.000000
        1.781250 0.730284 5.000000
        1.250000 -0.000000 5.700000
        1.875000 -0.000000 5.700000
        1.130478 1.130478 4.300000
        1.415099 1.415099 4.300000
        1.415099 1.415099 5.700000
        1.250000 0.000000 4.300000
        -0.000000 -0.000000 5.700000
        -0.000000 0.707100 5.700000
        1.130478 1.130478 5.700000
        1.250000 0.512480 4.300000
        0.000000 1.875000 4.300000
        1.875000 0.000000 5.000000
        1.415099 1.415099 5.000000
        1.130478 1.130478 5.000000
        0.000000 1.875000 5.000000
        0.707100 -0.000000 5.700000
        0.512480 0.512480 5.700000
        0.000000 1.250000 5.000000
        0.730284 1.781250 5.700000
        0.512480 1.250000 5.000000
        0.730284 1.781250 4.300000
        -0.000000 1.875000 5.700000
        0.000000 1.250000 4.300000
        0.000000 0.707100 4.300000
        0.512480 0.512480 7.100000
        1.250000 0.512480 7.800000
        0.000000 1.250000 7.800000
        0.000000 0.000000 9.200000
        0.000000 0.000000 8.500000
        0.000000 1.875000 8.500000
        0.000000 0.000000 6.400000
        0.512480 1.250000 6.400000
        1.781250 0.730284 8.500000
        0.707100 0.000000 6.400000
        1.250000 0.512480 7.100000
        1.250000 0.000000 7.100000
        1.781250 0.730284 7.100000
        0.000000 0.707100 8.500000
        1.250000 0.512480 9.200000
        1.250000 0.000000 7.800000
        1.875000 0.000000 7.800000
        1.130478 1.130478 8.500000
        1.250000 0.512480 9.900000
        0.707100 0.000000 9.200000
        1.415099 1.415099 6.400000
        0.512480 0.512480 9.900000
        1.250000 0.000000 6.400000
        1.415099 1.415099 8.500000
        0.000000 0.707100 7.800000
        1.415099 1.415099 9.900000
        0.707100 0.000000 8.500000
        1.250000 0.000000 8.500000
        0.512480 0.512480 8.500000
        1.415099 1.415099 7.100000
        0.707100 0.000000 9.900000
        1.875000 0.000000 9.200000
        1.250000 0.000000 9.200000
        1.250000 0.000000 9.900000
        0.707100 0.000000 7.800000
        0.512480 1.250000 9.900000
        0.000000 1.250000 7.100000
        1.875000 0.000000 9.900000
        0.730284 1.781250 6.400000
        0.000000 0.707100 9.200000
        0.000000 1.875000 7.800000
        0.000000 0.707100 6.400000
        0.512480 0.512480 9.200000
        1.875000 0.000000 6.400000
        -0.000000 1.875000 9.900000
        0.512480 1.250000 8.500000
        1.415099 1.415099 9.200000
        0.512480 0.512480 6.400000
        0.000000 0.000000 7.100000
        0.000000 1.250000 9.200000
        1.781250 0.730284 7.800000
        1.781250 0.730284 9.900000
        0.730284 1.781250 9.200000
        0.000000 1.875000 9.200000
        0.707100 0.000000 7.100000
        0.000000 0.707100 7.100000
        0.512480 1.250000 7.800000
        0.000000 0.707100 9.900000
        1.781250 0.730284 6.400000
        0.512480 1.250000 9.200000
        0.730284 1.781250 7.100000
        1.130478 1.130478 9.900000
        0.000000 0.000000 9.900000
        1.130478 1.130478 6.400000
        1.415099 1.415099 7.800000
        0.000000 1.250000 8.500000
        0.000000 0.000000 7.800000
        1.130478 1.130478 7.800000
        1.250000 0.512480 6.400000
        0.730284 1.781250 8.500000
        0.000000 1.875000 6.400000
        1.875000 0.000000 7.100000
        0.730284 1.781250 9.900000
        -0.000000 1.250000 9.900000
        1.130478 1.130478 7.100000
        0.000000 1.875000 7.100000
        0.512480 0.512480 7.800000
        1.250000 0.512480 8.500000
        1.875000 0.000000 8.500000
        1.130478 1.130478 9.200000
        0.730284 1.781250 7.800000
        0.512480 1.250000 7.100000
        1.781250 0.730284 9.200000
        0.000000 1.250000 6.400000
        0.707100 0.000000 11.300000
        0.000000 0.707100 10.600000
        0.000000 0.000000 11.300000
        1.250000 0.512480 11.300000
        0.000000 1.250000 10.600000
        0.707100 0.000000 10.600000
        1.875000 0.000000 12.000000
        0.730284 1.781250 10.600000
        1.130478 1.130478 10.600000
        0.000000 0.707100 11.300000
        1.250000 0.512480 12.000000
        -0.000000 1.875000 12.000000
        1.250000 0.000000 12.000000
        -0.000000 0.707100 12.000000
        0.512480 1.250000 10.600000
        1.781250 0.730284 11.300000
        0.000000 0.000000 10.600000
        1.781250 0.730284 12.000000
        0.512480 1.250000 12.000000
        0.730284 1.781250 12.000000
        1.875000 0.000000 10.600000
        1.250000 0.000000 10.600000
        -0.000000 1.250000 12.000000
        0.707100 0.000000 12.000000
        0.730284 1.781250 11.300000
        1.781250 0.730284 10.600000
        1.250000 0.512480 10.600000
        1.415099 1.415099 12.000000
        1.130478 1.130478 12.000000
        1.875000 0.000000 11.300000
        1.415099 1.415099 11.300000
        0.512480 1.250000 11.300000
        -0.000000 0.000000 12.000000
        1.415099 1.415099 10.600000
        1.130478 1.130478 11.300000
        0.512480 0.512480 10.600000
        0.000000 1.875000 11.300000
        0.000000 1.875000 10.600000
        0.512480 0.512480 11.300000
        0.512480 0.512480 12.000000
        0.000000 1.250000 11.300000
        1.250000 0.000000 11.300000
        0.707100 0.000000 -7.100000
        -0.000000 0.707100 -7.800000
        0.000000 0.000000 -8.500000
        1.250000 0.512480 -10.600000
        1.875000 0.000000 -5.000000
        0.000000 1.250000 -10.600000
        0.707100 0.000000 -9.900000
        0.000000 0.000000 -6.400000
        1.130478 1.130478 -7.800000
        -0.000000 0.707100 -7.100000
        -0.000000 1.250000 -9.900000
        0.512480 0.512480 -8.500000
        0.512480 1.250000 -9.200000
        1.250000 0.512480 -11.300000
        0.707100 0.000000 -12.000000
        0.512480 0.512480 -5.700000
        0.512480 0.512480 -11.300000
        -0.000000 0.000000 -9.200000
        1.250000 0.000000 -8.500000
        1.781250 0.730284 -7.800000
        1.781250 0.730284 -5.700000
        1.781250 0.730284 -6.400000
        0.000000 0.707100 -10.600000
        1.875000 0.000000 -7.100000
        0.000000 1.250000 -8.500000
        0.000000 0.000000 -5.700000
        -0.000000 0.707100 -9.200000
        1.250000 0.000000 -9.200000
        0.512480 1.250000 -7.100000
        1.875000 0.000000 -12.000000
        1.250000 0.000000 -12.000000
        0.512480 1.250000 -11.300000
        1.875000 0.000000 -11.300000
        1.250000 0.000000 -9.900000
        0.000000 0.707100 -8.500000
        1.875000 0.000000 -10.600000
        0.512480 0.512480 -7.100000
        -0.000000 1.250000 -5.000000
        1.250000 0.000000 -7.100000
        0.512480 0.512480 -12.000000
        0.000000 1.875000 -11.300000
        0.000000 1.250000 -6.400000
        1.250000 0.512480 -9.900000
        1.250000 0.512480 -7.100000
        -0.000000 1.250000 -7.800000
        1.781250 0.730284 -9.900000
        0.730284 1.781250 -7.800000
        -0.000000 1.875000 -12.000000
        1.875000 0.000000 -9.900000
        0.000000 1.875000 -6.400000
        0.000000 0.707100 -11.300000
        0.730284 1.781250 -10.600000
        0.512480 1.250000 -12.000000
        1.781250 0.730284 -7.100000
        1.130478 1.130478 -9.200000
        1.250000 0.512480 -5.700000
        0.512480 0.512480 -9.900000
        0.730284 1.781250 -8.500000
        -0.000000 1.250000 -9.200000
        1.875000 0.000000 -9.200000
        1.250000 0.000000 -5.000000
        0.000000 0.707100 -6.400000
        0.730284 1.781250 -7.100000
        1.415099 1.415099 -10.600000
        1.250000 0.512480 -7.800000
        1.781250 0.730284 -5.000000
        1.130478 1.130478 -5.700000
        0.730284 1.781250 -11.300000
        0.000000 1.250000 -11.300000
        1.415099 1.415099 -7.100000
        1.130478 1.130478 -10.600000
        1.250000 0.512480 -6.400000
        1.130478 1.130478 -12.000000
        1.781250 0.730284 -9.200000
        0.707100 0.000000 -10.600000
        1.875000 0.000000 -8.500000
        0.512480 0.512480 -7.800000
        1.781250 0.730284 -12.000000
        -0.000000 1.875000 -7.100000
        -0.000000 1.875000 -9.200000
        1.415099 1.415099 -8.500000
        0.512480 1.250000 -6.400000
        -0.000000 0.000000 -7.100000
        0.512480 0.512480 -10.600000
        0.000000 0.000000 -10.600000
        0.000000 1.875000 -10.600000
        0.707100 0.000000 -7.800000
        -0.000000 0.000000 -12.000000
        0.000000 1.250000 -5.700000
        -0.000000 0.000000 -9.900000
        -0.000000 0.000000 -5.000000
        -0.000000 1.875000 -5.000000
        0.512480 1.250000 -7.800000
        1.250000 0.512480 -12.000000
        -0.000000 0.707100 -5.000000
        1.250000 0.512480 -5.000000
        -0.000000 0.000000 -7.800000
        1.781250 0.730284 -10.600000
        0.707100 0.000000 -5.700000
        0.707100 0.000000 -9.200000
        0.512480 1.250000 -8.500000
        1.250000 0.000000 -5.700000
        0.000000 1.875000 -5.700000
        1.415099 1.415099 -5.000000
        0.730284 1.781250 -5.700000
        1.415099 1.415099 -11.300000
        0.512480 1.250000 -5.700000
        1.250000 0.512480 -9.200000
        1.875000 0.000000 -5.700000
        0.730284 1.781250 -6.400000
        0.707100 0.000000 -11.300000
        1.415099 1.415099 -9.200000