<VTKFile type="UnstructuredGrid" version="0.1" byte_order="LittleEndian">
  <UnstructuredGrid>
    <Piece NumberOfPoints="14" NumberOfCells="8">
      <PointData Scalars="FFID">
        <DataArray type="Int32" Name="FFID" format="ascii">
          489
          504
          505
          514
          522
          527
          547
          552
          562
          568
          590
          598
          601
          603
        </DataArray>
        </PointData>
      <Points>
        <DataArray type="Float32" Name="Points" NumberOfComponents="3" format="ascii" RangeMin="0" RangeMax="1.0">
          0.707100 0.000000 -12.000000
          1.875000 0.000000 -12.000000
          1.250000 0.000000 -12.000000
          0.512480 0.512480 -12.000000
          -0.000000 1.875000 -12.000000
          0.512480 1.250000 -12.000000
          1.130478 1.130478 -12.000000
          1.781250 0.730284 -12.000000
          -0.000000 0.000000 -12.000000
          1.250000 0.512480 -12.000000
          -0.000000 0.707100 -12.000000
          1.415099 1.415099 -12.000000
          -0.000000 1.250000 -12.000000
          0.730284 1.781250 -12.000000
        </DataArray>
      </Points>
        <Cells>
          <DataArray type="Int32" Name="connectivity" format="ascii" RangeMin="0" RangeMax="626">
            6 9 3 5
            7 9 2 1
            8 10 3 0
            7 9 6 11
            13 11 6 5
            13 5 12 4
            3 10 12 5
            9 3 0 2
          </DataArray>
          <DataArray type="Int32" Name="offsets" format="ascii" RangeMin="4" RangeMax="32">
            4 8 12 16 20 24 
            28 32 
          </DataArray>
          <DataArray type="UInt8" Name="types" format="ascii" RangeMin="9" RangeMax="9">
            9 9 9 9 9 9 
            9 9 
          </DataArray>
        </Cells>
      </Piece>
    </UnstructuredGrid>
</VTKFile>
