<VTKFile type="UnstructuredGrid" version="0.1" byte_order="LittleEndian">
  <UnstructuredGrid>
    <Piece NumberOfPoints="36" NumberOfCells="26">
      <PointData Scalars="FFID">
        <DataArray type="Int32" Name="FFID" format="ascii">
          2
          3
          4
          5
          6
          7
          8
          9
          10
          11
          12
          13
          14
          15
          84
          87
          97
          99
          100
          108
          126
          129
          133
          135
          141
          148
          162
          163
          169
          170
          182
          190
          194
          206
          212
          220
        </DataArray>
        </PointData>
      <Points>
        <DataArray type="Float32" Name="Points" NumberOfComponents="3" format="ascii" RangeMin="0" RangeMax="1.0">
          -0.000000 0.000000 1.000000
          0.707100 0.000000 0.707100
          0.000000 0.707100 0.707100
          0.577400 0.577400 0.577400
          0.359000 0.861500 0.359000
          -0.000000 0.923900 0.382700
          0.677800 0.677800 0.284800
          0.923900 0.000000 0.382700
          0.861500 0.359000 0.359000
          0.284800 0.677800 0.677800
          0.382700 0.000000 0.923900
          -0.000000 0.382700 0.923900
          0.359000 0.359000 0.861500
          0.677800 0.284800 0.677800
          0.707100 0.707100 -0.000000
          -0.000000 0.707100 -0.707100
          0.191350 0.000000 -0.943900
          0.179500 0.179500 -0.931500
          0.861500 0.359000 -0.359000
          -0.000000 0.191350 -0.973900
          -0.000000 0.923900 -0.382700
          -0.000000 0.382700 -0.923900
          1.000000 0.000000 -0.000000
          0.359000 0.861500 -0.359000
          0.382700 0.923900 0.000000
          -0.000000 1.000000 0.000000
          0.923900 0.382700 0.000000
          0.707100 0.000000 -0.707100
          0.359000 0.359000 -0.861500
          0.677800 0.284800 -0.677800
          0.577400 0.577400 -0.577400
          0.382700 0.000000 -0.923900
          0.923900 0.000000 -0.382700
          -0.000000 0.000000 -1.000000
          0.677800 0.677800 -0.284800
          0.284800 0.677800 -0.677800
        </DataArray>
      </Points>
        <Cells>
          <DataArray type="Int32" Name="connectivity" format="ascii" RangeMin="0" RangeMax="626">
            3 6 4 9
            3 13 8 6
            6 14 24 4
            4 9 2 5
            9 12 13 3
            6 8 26 14
            4 5 25 24
            9 2 11 12
            13 1 7 8
            8 7 22 26
            12 10 1 13
            24 23 34 14
            24 25 20 23
            14 34 18 26
            11 0 10 12
            26 18 32 22
            34 30 29 18
            30 35 28 29
            35 15 21 28
            29 27 31 28
            30 34 23 35
            18 29 27 32
            21 19 17 28
            35 23 20 15
            19 33 16 17
            28 31 16 17
          </DataArray>
          <DataArray type="Int32" Name="offsets" format="ascii" RangeMin="4" RangeMax="104">
            4 8 12 16 20 24 
            28 32 36 40 44 48 
            52 56 60 64 68 72 
            76 80 84 88 92 96 
            100 104 
          </DataArray>
          <DataArray type="UInt8" Name="types" format="ascii" RangeMin="9" RangeMax="9">
            9 9 9 9 9 9 
            9 9 9 9 9 9 
            9 9 9 9 9 9 
            9 9 9 9 9 9 
            9 9 
          </DataArray>
        </Cells>
      </Piece>
    </UnstructuredGrid>
</VTKFile>
