<VTKFile type="UnstructuredGrid" version="0.1" byte_order="LittleEndian">
  <UnstructuredGrid>
    <Piece NumberOfPoints="177" NumberOfCells="133">
      <PointData Scalars="FFID">
        <DataArray type="Int32" Name="FFID" format="ascii">
          2
          4
          7
          13
          16
          19
          21
          31
          36
          41
          42
          43
          46
          54
          56
          57
          60
          63
          68
          71
          74
          81
          86
          87
          88
          89
          91
          95
          106
          108
          112
          114
          120
          121
          124
          125
          126
          129
          136
          137
          139
          140
          142
          143
          146
          148
          154
          158
          159
          160
          166
          168
          177
          179
          192
          196
          203
          205
          206
          214
          221
          225
          226
          231
          232
          239
          247
          249
          250
          257
          258
          259
          262
          268
          270
          274
          275
          280
          288
          289
          291
          295
          299
          303
          305
          311
          312
          314
          316
          331
          332
          335
          339
          342
          346
          347
          348
          351
          352
          353
          354
          355
          362
          373
          385
          388
          389
          390
          393
          397
          398
          402
          404
          406
          411
          414
          415
          419
          422
          424
          432
          434
          435
          437
          442
          444
          446
          449
          455
          465
          469
          470
          473
          476
          477
          480
          482
          484
          485
          492
          497
          499
          500
          501
          509
          512
          515
          516
          519
          522
          524
          525
          533
          536
          543
          553
          554
          557
          559
          560
          562
          563
          564
          565
          566
          569
          571
          577
          590
          593
          595
          600
          601
          608
          612
          615
          621
        </DataArray>
        </PointData>
      <Points>
        <DataArray type="Float32" Name="Points" NumberOfComponents="3" format="ascii" RangeMin="0" RangeMax="1.0">
          -0.000000 0.000000 1.000000
          0.000000 0.707100 0.707100
          -0.000000 0.923900 0.382700
          -0.000000 0.382700 0.923900
          -0.000000 1.330416 0.551088
          0.000000 0.551088 1.330416
          -0.000000 1.108680 0.459240
          -0.000000 0.000000 1.440000
          -0.000000 0.000000 1.200000
          0.000000 0.459240 1.108680
          -0.000000 0.848520 0.848520
          0.000000 1.018224 1.018224
          0.000000 1.593750 0.500000
          0.000000 1.018224 1.518224
          -0.000000 0.000000 1.740000
          0.000000 0.551088 1.630416
          -0.000000 1.466243 1.318224
          -0.000000 1.875000 1.100000
          -0.000000 0.000000 2.100000
          0.000000 1.141897 1.900000
          -0.000000 0.645948 2.100000
          0.000000 1.381695 1.900000
          0.000000 0.459240 -1.108680
          -0.000000 0.707100 -0.707100
          -0.000000 0.229620 -1.158680
          0.000000 1.875000 0.000000
          0.000000 0.000000 -2.100000
          -0.000000 1.875000 -2.400000
          0.000000 0.000000 -2.400000
          -0.000000 0.191350 -0.973900
          0.000000 0.000000 -1.440000
          -0.000000 0.707100 -2.400000
          -0.000000 1.381695 -1.900000
          -0.000000 0.000000 -2.650000
          -0.000000 0.848520 -0.848520
          0.000000 0.322974 -2.100000
          -0.000000 0.923900 -0.382700
          -0.000000 0.382700 -0.923900
          -0.000000 1.330416 -0.551088
          -0.000000 0.275544 -1.380416
          0.000000 0.645948 -2.100000
          -0.000000 0.551088 -1.330416
          -0.000000 0.353550 -2.650000
          -0.000000 1.250000 -2.400000
          -0.000000 1.466243 -1.318224
          -0.000000 1.000000 0.000000
          0.000000 1.593750 -0.500000
          -0.000000 1.200000 0.000000
          -0.000000 0.000000 -1.200000
          0.000000 1.875000 -1.100000
          0.000000 0.353550 -2.400000
          -0.000000 1.108680 -0.459240
          -0.000000 1.141897 -1.900000
          -0.000000 0.275544 -1.680416
          -0.000000 1.018224 -1.018224
          -0.000000 0.000000 -1.740000
          -0.000000 0.551088 -1.630416
          -0.000000 1.440000 0.000000
          -0.000000 0.000000 -1.000000
          0.000000 1.018224 -1.518224
          0.000000 1.593750 0.000000
          0.000000 1.875000 2.500000
          0.000000 1.250000 2.500000
          0.000000 0.707100 2.500000
          0.000000 0.000000 2.500000
          -0.000000 0.000000 -3.050000
          -0.000000 1.875000 -3.050000
          -0.000000 1.250000 -3.050000
          -0.000000 0.707100 -3.050000
          0.000000 1.875000 -3.650000
          0.000000 0.000000 -3.650000
          0.000000 1.250000 -3.650000
          0.000000 0.707100 -3.650000
          0.000000 1.250000 3.100000
          0.000000 0.000000 3.100000
          0.000000 1.875000 3.100000
          0.000000 0.707100 3.100000
          -0.000000 1.250000 3.700000
          -0.000000 0.707100 3.700000
          -0.000000 1.875000 3.700000
          -0.000000 0.000000 3.700000
          0.000000 1.250000 -4.325000
          -0.000000 1.875000 -4.325000
          -0.000000 0.000000 -4.325000
          -0.000000 0.707100 -4.325000
          0.000000 0.000000 5.000000
          -0.000000 1.250000 5.700000
          0.000000 0.000000 4.300000
          0.000000 0.707100 5.000000
          -0.000000 -0.000000 5.700000
          -0.000000 0.707100 5.700000
          0.000000 1.875000 4.300000
          0.000000 1.875000 5.000000
          0.000000 1.250000 5.000000
          -0.000000 1.875000 5.700000
          0.000000 1.250000 4.300000
          0.000000 0.707100 4.300000
          0.000000 1.250000 7.800000
          0.000000 0.000000 9.200000
          0.000000 0.000000 8.500000
          0.000000 1.875000 8.500000
          0.000000 0.000000 6.400000
          0.000000 0.707100 8.500000
          0.000000 0.707100 7.800000
          0.000000 1.250000 7.100000
          0.000000 0.707100 9.200000
          0.000000 1.875000 7.800000
          0.000000 0.707100 6.400000
          -0.000000 1.875000 9.900000
          0.000000 0.000000 7.100000
          0.000000 1.250000 9.200000
          0.000000 1.875000 9.200000
          0.000000 0.707100 7.100000
          0.000000 0.707100 9.900000
          0.000000 0.000000 9.900000
          0.000000 1.250000 8.500000
          0.000000 0.000000 7.800000
          0.000000 1.875000 6.400000
          -0.000000 1.250000 9.900000
          0.000000 1.875000 7.100000
          0.000000 1.250000 6.400000
          0.000000 0.707100 10.600000
          0.000000 0.000000 11.300000
          0.000000 1.250000 10.600000
          0.000000 0.707100 11.300000
          -0.000000 1.875000 12.000000
          -0.000000 0.707100 12.000000
          0.000000 0.000000 10.600000
          -0.000000 1.250000 12.000000
          -0.000000 0.000000 12.000000
          0.000000 1.875000 11.300000
          0.000000 1.875000 10.600000
          0.000000 1.250000 11.300000
          -0.000000 0.707100 -7.800000
          0.000000 0.000000 -8.500000
          0.000000 1.250000 -10.600000
          0.000000 0.000000 -6.400000
          -0.000000 0.707100 -7.100000
          -0.000000 1.250000 -9.900000
          -0.000000 0.000000 -9.200000
          0.000000 0.707100 -10.600000
          0.000000 1.250000 -8.500000
          0.000000 0.000000 -5.700000
          -0.000000 0.707100 -9.200000
          0.000000 0.707100 -8.500000
          -0.000000 1.250000 -5.000000
          0.000000 1.875000 -11.300000
          0.000000 1.250000 -6.400000
          -0.000000 1.250000 -7.800000
          -0.000000 1.875000 -12.000000
          0.000000 1.875000 -6.400000
          0.000000 0.707100 -11.300000
          -0.000000 1.250000 -9.200000
          0.000000 0.707100 -6.400000
          0.000000 1.250000 -11.300000
          -0.000000 1.875000 -7.100000
          -0.000000 1.875000 -9.200000
          -0.000000 0.000000 -7.100000
          0.000000 0.000000 -10.600000
          0.000000 1.875000 -10.600000
          -0.000000 0.000000 -12.000000
          0.000000 1.250000 -5.700000
          -0.000000 0.000000 -9.900000
          -0.000000 0.000000 -5.000000
          -0.000000 1.875000 -5.000000
          -0.000000 0.707100 -5.000000
          -0.000000 0.000000 -7.800000
          0.000000 1.875000 -5.700000
          -0.000000 0.707100 -12.000000
          -0.000000 1.875000 -7.800000
          -0.000000 1.250000 -7.100000
          -0.000000 1.875000 -9.900000
          -0.000000 1.250000 -12.000000
          0.000000 1.875000 -8.500000
          0.000000 0.000000 -11.300000
          -0.000000 0.707100 -9.900000
          0.000000 0.707100 -5.700000
        </DataArray>
      </Points>
        <Cells>
          <DataArray type="Int32" Name="connectivity" format="ascii" RangeMin="0" RangeMax="626">
            2 1 10 6
            6 4 11 10
            2 6 47 45
            10 9 3 1
            47 51 36 45
            47 57 4 6
            10 11 5 9
            9 8 0 3
            4 16 13 11
            57 60 12 4
            57 38 51 47
            12 17 16 4
            11 13 15 5
            5 7 8 9
            5 15 14 7
            60 46 38 57
            60 25 17 12
            13 19 20 15
            16 21 19 13
            17 61 21 16
            15 20 18 14
            60 46 49 25
            19 62 61 21
            20 63 62 19
            20 18 64 63
            59 54 38 44
            44 49 46 38
            59 52 32 44
            59 56 41 54
            54 34 51 38
            44 32 27 49
            59 56 40 52
            41 22 34 54
            22 37 23 34
            22 24 39 41
            50 31 68 42
            68 67 43 31
            35 26 55 53
            35 40 56 53
            35 50 31 40
            35 26 28 50
            53 39 41 56
            55 30 39 53
            40 52 43 31
            32 27 43 52
            22 24 29 37
            34 23 36 51
            24 39 30 48
            24 48 58 29
            50 42 33 28
            42 33 65 68
            43 67 66 27
            62 63 76 73
            62 73 75 61
            64 74 76 63
            67 68 72 71
            67 71 69 66
            65 70 72 68
            69 71 81 82
            72 84 81 71
            70 83 84 72
            76 78 77 73
            75 73 77 79
            74 80 78 76
            80 87 96 78
            77 95 91 79
            77 78 96 95
            81 145 164 82
            84 165 145 81
            83 163 165 84
            89 90 88 85
            101 107 90 89
            95 96 88 93
            95 93 92 91
            88 90 86 93
            92 93 86 94
            90 86 120 107
            96 87 85 88
            86 120 117 94
            127 121 113 114
            113 118 123 121
            101 109 112 107
            116 99 102 103
            102 99 98 105
            119 104 97 106
            120 104 119 117
            97 103 102 115
            118 123 131 108
            115 102 105 110
            111 110 118 108
            97 115 100 106
            105 113 118 110
            120 107 112 104
            109 116 103 112
            112 103 97 104
            115 110 111 100
            114 113 105 98
            121 124 132 123
            129 126 124 122
            131 123 132 130
            124 132 128 126
            122 124 121 127
            132 128 125 130
            153 176 161 147
            162 139 143 175
            154 135 159 146
            135 140 175 138
            152 143 144 141
            133 137 170 148
            135 138 171 159
            136 153 137 157
            139 134 144 143
            163 165 176 142
            161 145 164 167
            158 162 175 140
            174 151 168 160
            157 137 133 166
            158 140 151 174
            151 154 135 140
            175 143 152 138
            171 138 152 156
            176 161 145 165
            149 172 154 146
            170 147 150 155
            168 151 154 172
            150 147 161 167
            152 141 173 156
            169 148 170 155
            137 170 147 153
            141 144 133 148
            144 134 166 133
            142 176 153 136
            141 148 169 173
          </DataArray>
          <DataArray type="Int32" Name="offsets" format="ascii" RangeMin="4" RangeMax="532">
            4 8 12 16 20 24 
            28 32 36 40 44 48 
            52 56 60 64 68 72 
            76 80 84 88 92 96 
            100 104 108 112 116 120 
            124 128 132 136 140 144 
            148 152 156 160 164 168 
            172 176 180 184 188 192 
            196 200 204 208 212 216 
            220 224 228 232 236 240 
            244 248 252 256 260 264 
            268 272 276 280 284 288 
            292 296 300 304 308 312 
            316 320 324 328 332 336 
            340 344 348 352 356 360 
            364 368 372 376 380 384 
            388 392 396 400 404 408 
            412 416 420 424 428 432 
            436 440 444 448 452 456 
            460 464 468 472 476 480 
            484 488 492 496 500 504 
            508 512 516 520 524 528 
            532 
          </DataArray>
          <DataArray type="UInt8" Name="types" format="ascii" RangeMin="9" RangeMax="9">
            9 9 9 9 9 9 
            9 9 9 9 9 9 
            9 9 9 9 9 9 
            9 9 9 9 9 9 
            9 9 9 9 9 9 
            9 9 9 9 9 9 
            9 9 9 9 9 9 
            9 9 9 9 9 9 
            9 9 9 9 9 9 
            9 9 9 9 9 9 
            9 9 9 9 9 9 
            9 9 9 9 9 9 
            9 9 9 9 9 9 
            9 9 9 9 9 9 
            9 9 9 9 9 9 
            9 9 9 9 9 9 
            9 9 9 9 9 9 
            9 9 9 9 9 9 
            9 9 9 9 9 9 
            9 9 9 9 9 9 
            9 9 9 9 9 9 
            9 9 9 9 9 9 
            9 
          </DataArray>
        </Cells>
      </Piece>
    </UnstructuredGrid>
</VTKFile>
