<VTKFile type="UnstructuredGrid" version="0.1" byte_order="LittleEndian">
  <UnstructuredGrid>
    <Piece NumberOfPoints="177" NumberOfCells="133">
      <PointData Scalars="FFID">
        <DataArray type="Int32" Name="FFID" format="ascii">
          2
          3
          9
          12
          18
          22
          26
          30
          31
          36
          37
          39
          45
          50
          52
          56
          61
          67
          68
          75
          76
          78
          91
          92
          93
          96
          97
          102
          103
          106
          111
          112
          113
          115
          116
          117
          121
          122
          131
          132
          133
          145
          147
          149
          150
          153
          159
          163
          167
          176
          178
          180
          187
          190
          194
          195
          196
          200
          201
          206
          219
          224
          227
          228
          232
          237
          239
          241
          245
          251
          255
          258
          260
          265
          269
          270
          278
          281
          284
          287
          291
          296
          302
          303
          306
          307
          311
          314
          315
          319
          323
          325
          326
          330
          331
          336
          340
          352
          353
          355
          358
          360
          364
          365
          368
          371
          375
          376
          379
          380
          381
          382
          383
          386
          392
          397
          403
          411
          415
          420
          427
          433
          435
          438
          439
          445
          449
          453
          454
          456
          462
          465
          474
          475
          477
          479
          481
          482
          489
          492
          493
          498
          500
          502
          504
          505
          507
          508
          510
          513
          523
          534
          535
          549
          550
          557
          559
          561
          562
          564
          565
          571
          573
          574
          576
          583
          585
          587
          596
          597
          605
          607
          612
          616
          617
          620
          625
        </DataArray>
        </PointData>
      <Points>
        <DataArray type="Float32" Name="Points" NumberOfComponents="3" format="ascii" RangeMin="0" RangeMax="1.0">
          -0.000000 0.000000 1.000000
          0.707100 0.000000 0.707100
          0.923900 0.000000 0.382700
          0.382700 0.000000 0.923900
          1.108680 0.000000 0.459240
          0.848520 0.000000 0.848520
          1.018224 0.000000 1.018224
          1.330416 0.000000 0.551088
          -0.000000 0.000000 1.440000
          -0.000000 0.000000 1.200000
          0.551088 0.000000 1.330416
          0.459240 0.000000 1.108680
          1.593750 0.000000 0.500000
          0.551088 0.000000 1.630416
          1.018224 0.000000 1.318224
          -0.000000 0.000000 1.740000
          1.466243 0.000000 1.118224
          1.875000 0.000000 1.100000
          -0.000000 0.000000 2.100000
          0.645948 0.000000 2.100000
          1.141897 0.000000 1.900000
          1.381695 0.000000 1.900000
          0.000000 0.000000 -2.100000
          1.108680 0.000000 -0.459240
          0.707100 0.000000 -2.400000
          0.353550 0.000000 -2.400000
          0.191350 0.000000 -0.943900
          0.551088 0.000000 -1.630416
          1.875000 0.000000 -1.100000
          0.000000 0.000000 -2.400000
          1.466243 0.000000 -1.118224
          0.000000 0.000000 -1.440000
          1.330416 0.000000 -0.551088
          1.200000 0.000000 -0.000000
          1.250000 0.000000 -2.400000
          0.275544 0.000000 -1.350416
          -0.000000 0.000000 -2.650000
          1.018224 0.000000 -1.318224
          1.593750 0.000000 0.000000
          1.593750 0.000000 -0.500000
          1.000000 0.000000 -0.000000
          0.459240 0.000000 -1.108680
          0.645948 -0.000000 -2.100000
          0.353550 0.000000 -2.650000
          1.018224 0.000000 -1.018224
          1.875000 0.000000 -0.000000
          -0.000000 0.000000 -1.200000
          0.707100 0.000000 -0.707100
          0.322974 0.000000 -2.100000
          0.229620 0.000000 -1.128680
          1.141897 0.000000 -1.900000
          0.275544 0.000000 -1.630416
          0.848520 0.000000 -0.848520
          0.382700 0.000000 -0.923900
          0.923900 0.000000 -0.382700
          0.551088 0.000000 -1.330416
          -0.000000 0.000000 -1.740000
          1.875000 0.000000 -2.400000
          1.381695 0.000000 -1.900000
          -0.000000 0.000000 -1.000000
          1.440000 0.000000 -0.000000
          1.250000 0.000000 2.500000
          1.875000 0.000000 2.500000
          0.707100 0.000000 2.500000
          0.000000 0.000000 2.500000
          1.875000 0.000000 -3.050000
          -0.000000 0.000000 -3.050000
          0.707100 0.000000 -3.050000
          1.250000 0.000000 -3.050000
          1.250000 0.000000 -3.650000
          1.875000 0.000000 -3.650000
          0.000000 0.000000 -3.650000
          0.707100 0.000000 -3.650000
          0.707100 0.000000 3.100000
          1.875000 0.000000 3.100000
          0.000000 0.000000 3.100000
          1.250000 0.000000 3.100000
          1.875000 0.000000 3.700000
          1.250000 0.000000 3.700000
          0.707100 0.000000 3.700000
          -0.000000 0.000000 3.700000
          1.875000 0.000000 -4.325000
          0.707100 0.000000 -4.325000
          -0.000000 0.000000 -4.325000
          1.250000 0.000000 -4.325000
          1.875000 0.000000 4.300000
          0.000000 0.000000 5.000000
          0.000000 0.000000 4.300000
          0.707100 0.000000 5.000000
          0.707100 0.000000 4.300000
          1.250000 0.000000 5.000000
          1.250000 -0.000000 5.700000
          1.875000 -0.000000 5.700000
          1.250000 0.000000 4.300000
          -0.000000 -0.000000 5.700000
          1.875000 0.000000 5.000000
          0.707100 -0.000000 5.700000
          0.000000 0.000000 9.200000
          0.000000 0.000000 8.500000
          0.000000 0.000000 6.400000
          0.707100 0.000000 6.400000
          1.250000 0.000000 7.100000
          1.250000 0.000000 7.800000
          1.875000 0.000000 7.800000
          0.707100 0.000000 9.200000
          1.250000 0.000000 6.400000
          0.707100 0.000000 8.500000
          1.250000 0.000000 8.500000
          0.707100 0.000000 9.900000
          1.875000 0.000000 9.200000
          1.250000 0.000000 9.200000
          1.250000 0.000000 9.900000
          0.707100 0.000000 7.800000
          1.875000 0.000000 9.900000
          1.875000 0.000000 6.400000
          0.000000 0.000000 7.100000
          0.707100 0.000000 7.100000
          0.000000 0.000000 9.900000
          0.000000 0.000000 7.800000
          1.875000 0.000000 7.100000
          1.875000 0.000000 8.500000
          0.707100 0.000000 11.300000
          0.000000 0.000000 11.300000
          0.707100 0.000000 10.600000
          1.875000 0.000000 12.000000
          1.250000 0.000000 12.000000
          0.000000 0.000000 10.600000
          1.875000 0.000000 10.600000
          1.250000 0.000000 10.600000
          0.707100 0.000000 12.000000
          1.875000 0.000000 11.300000
          -0.000000 0.000000 12.000000
          1.250000 0.000000 11.300000
          0.707100 0.000000 -7.100000
          0.000000 0.000000 -8.500000
          1.875000 0.000000 -5.000000
          0.707100 0.000000 -9.900000
          0.000000 0.000000 -6.400000
          0.707100 0.000000 -12.000000
          -0.000000 0.000000 -9.200000
          1.250000 0.000000 -8.500000
          1.875000 0.000000 -7.100000
          0.000000 0.000000 -5.700000
          1.250000 0.000000 -9.200000
          1.875000 0.000000 -12.000000
          1.250000 0.000000 -12.000000
          1.875000 0.000000 -11.300000
          1.250000 0.000000 -9.900000
          1.875000 0.000000 -10.600000
          1.250000 0.000000 -7.100000
          1.875000 0.000000 -9.900000
          1.875000 0.000000 -9.200000
          1.250000 0.000000 -5.000000
          0.707100 0.000000 -10.600000
          1.875000 0.000000 -8.500000
          -0.000000 0.000000 -7.100000
          0.000000 0.000000 -10.600000
          0.707100 0.000000 -7.800000
          -0.000000 0.000000 -12.000000
          -0.000000 0.000000 -9.900000
          -0.000000 0.000000 -5.000000
          -0.000000 0.000000 -7.800000
          0.707100 0.000000 -5.700000
          0.707100 0.000000 -9.200000
          1.250000 0.000000 -5.700000
          1.875000 0.000000 -5.700000
          0.707100 0.000000 -11.300000
          1.250000 0.000000 -11.300000
          0.707100 0.000000 -6.400000
          1.250000 0.000000 -10.600000
          0.707100 0.000000 -5.000000
          0.707100 0.000000 -8.500000
          0.000000 0.000000 -11.300000
          1.875000 0.000000 -7.800000
          1.250000 0.000000 -7.800000
          1.250000 0.000000 -6.400000
          1.875000 0.000000 -6.400000
        </DataArray>
      </Points>
        <Cells>
          <DataArray type="Int32" Name="connectivity" format="ascii" RangeMin="0" RangeMax="626">
            1 5 4 2
            2 4 33 40
            4 5 6 7
            5 1 3 11
            5 11 10 6
            11 3 0 9
            6 14 16 7
            4 7 60 33
            10 13 14 6
            11 9 8 10
            40 54 23 33
            8 15 13 10
            7 12 38 60
            7 16 17 12
            33 23 32 60
            60 38 39 32
            12 17 45 38
            14 20 21 16
            16 21 62 17
            38 45 28 39
            13 19 20 14
            15 18 19 13
            19 63 61 20
            21 62 61 20
            19 63 64 18
            23 52 44 32
            41 52 44 55
            41 53 47 52
            44 37 27 55
            49 41 55 35
            24 34 68 67
            24 34 50 42
            24 42 48 25
            25 24 67 43
            34 50 58 57
            34 68 65 57
            51 56 22 48
            48 25 29 22
            48 51 27 42
            51 35 31 56
            27 37 50 42
            27 55 35 51
            54 47 52 23
            37 30 58 50
            37 30 32 44
            46 31 35 49
            46 49 26 59
            49 26 53 41
            39 32 30 28
            30 58 57 28
            29 36 43 25
            43 67 66 36
            62 74 76 61
            64 63 73 75
            61 76 73 63
            65 70 69 68
            68 69 72 67
            67 72 71 66
            70 81 84 69
            72 82 83 71
            69 84 82 72
            74 77 78 76
            73 79 80 75
            76 78 79 73
            78 93 89 79
            77 85 93 78
            79 89 87 80
            81 135 152 84
            84 152 170 82
            83 82 170 160
            96 94 86 88
            96 100 99 94
            95 90 91 92
            90 88 96 91
            85 95 90 93
            91 105 100 96
            105 114 92 91
            87 89 88 86
            89 88 90 93
            108 123 126 117
            102 107 106 112
            99 100 116 115
            106 104 110 107
            111 128 123 108
            112 106 98 118
            128 127 113 111
            98 106 104 97
            109 110 111 113
            103 120 107 102
            114 119 101 105
            119 103 102 101
            101 102 112 116
            116 112 118 115
            120 109 110 107
            108 117 97 104
            105 101 116 100
            110 104 108 111
            127 128 132 130
            121 129 131 122
            125 124 130 132
            128 123 121 132
            132 125 129 121
            121 122 126 123
            164 152 170 162
            171 157 174 140
            154 173 174 140
            169 148 146 167
            144 145 167 146
            174 157 133 149
            149 175 168 133
            136 163 139 159
            133 168 137 155
            163 171 134 139
            162 170 160 142
            175 176 141 149
            175 168 162 164
            156 153 136 159
            166 172 158 138
            152 135 165 164
            133 155 161 157
            169 147 136 153
            166 153 156 172
            148 150 147 169
            176 175 164 165
            167 169 153 166
            173 174 149 141
            151 154 140 143
            150 151 143 147
            147 143 163 136
            134 171 157 161
            162 142 137 168
            145 138 166 167
            143 140 171 163
          </DataArray>
          <DataArray type="Int32" Name="offsets" format="ascii" RangeMin="4" RangeMax="532">
            4 8 12 16 20 24 
            28 32 36 40 44 48 
            52 56 60 64 68 72 
            76 80 84 88 92 96 
            100 104 108 112 116 120 
            124 128 132 136 140 144 
            148 152 156 160 164 168 
            172 176 180 184 188 192 
            196 200 204 208 212 216 
            220 224 228 232 236 240 
            244 248 252 256 260 264 
            268 272 276 280 284 288 
            292 296 300 304 308 312 
            316 320 324 328 332 336 
            340 344 348 352 356 360 
            364 368 372 376 380 384 
            388 392 396 400 404 408 
            412 416 420 424 428 432 
            436 440 444 448 452 456 
            460 464 468 472 476 480 
            484 488 492 496 500 504 
            508 512 516 520 524 528 
            532 
          </DataArray>
          <DataArray type="UInt8" Name="types" format="ascii" RangeMin="9" RangeMax="9">
            9 9 9 9 9 9 
            9 9 9 9 9 9 
            9 9 9 9 9 9 
            9 9 9 9 9 9 
            9 9 9 9 9 9 
            9 9 9 9 9 9 
            9 9 9 9 9 9 
            9 9 9 9 9 9 
            9 9 9 9 9 9 
            9 9 9 9 9 9 
            9 9 9 9 9 9 
            9 9 9 9 9 9 
            9 9 9 9 9 9 
            9 9 9 9 9 9 
            9 9 9 9 9 9 
            9 9 9 9 9 9 
            9 9 9 9 9 9 
            9 9 9 9 9 9 
            9 9 9 9 9 9 
            9 9 9 9 9 9 
            9 9 9 9 9 9 
            9 9 9 9 9 9 
            9 
          </DataArray>
        </Cells>
      </Piece>
    </UnstructuredGrid>
</VTKFile>
