<VTKFile type="UnstructuredGrid" version="0.1" byte_order="LittleEndian">
  <UnstructuredGrid>
    <Piece NumberOfPoints="176" NumberOfCells="86">
      <PointData Scalars="FFID">
        <DataArray type="Int32" Name="FFID" format="ascii">
          1934
          1935
          1936
          1937
          1938
          1939
          1940
          1941
          1942
          1943
          1944
          1945
          1946
          1947
          1948
          1949
          1950
          1951
          1952
          1953
          1954
          1955
          1956
          1957
          1958
          1959
          1960
          1961
          1962
          1963
          1964
          1965
          1966
          1967
          1968
          1969
          1970
          1971
          1972
          1973
          1974
          1975
          1976
          1977
          1978
          1979
          1980
          1981
          1982
          1983
          1984
          1985
          1986
          1987
          1988
          1989
          1990
          1991
          1992
          1993
          1994
          1995
          1996
          1997
          1998
          1999
          2000
          2001
          2002
          2003
          2004
          2005
          2006
          2007
          2008
          2009
          2010
          2011
          2012
          2013
          2014
          2015
          2016
          2017
          2018
          2019
          2020
          2021
          2022
          2023
          2024
          2025
          2026
          2027
          2028
          2029
          2030
          2031
          2032
          2033
          2034
          2035
          2036
          2037
          2038
          2039
          2040
          2041
          2042
          2043
          2044
          2045
          2046
          2047
          2048
          2049
          2050
          2051
          2052
          2053
          2054
          2055
          2056
          2057
          2058
          2059
          2060
          2061
          2062
          2063
          2064
          2065
          2066
          2067
          2068
          2069
          2070
          2071
          2072
          2073
          2074
          2075
          2076
          2077
          2078
          2079
          2080
          2081
          2082
          2083
          2084
          2085
          2086
          2087
          2088
          2089
          2090
          2091
          2092
          2093
          2094
          2095
          2096
          2097
          2098
          2099
          2100
          2101
          2102
          2103
          2104
          2105
          2106
          2107
          2108
          2109
        </DataArray>
        </PointData>
      <Points>
        <DataArray type="Float32" Name="Points" NumberOfComponents="3" format="ascii" RangeMin="0" RangeMax="1.0">
          20.000000 50.000000 -0.600000
          20.000000 30.000000 -0.600000
          20.000000 70.000000 -0.600000
          20.000000 60.000000 -0.600000
          20.000000 40.000000 -0.600000
          20.000000 20.000000 -0.600000
          20.000000 66.666667 -0.600000
          20.000000 63.333333 -0.600000
          20.000000 56.666667 -0.600000
          20.000000 53.333333 -0.600000
          20.000000 46.666667 -0.600000
          20.000000 43.333333 -0.600000
          20.000000 36.666667 -0.600000
          20.000000 33.333333 -0.600000
          20.000000 26.666667 -0.600000
          20.000000 23.333333 -0.600000
          20.000000 16.666667 -0.600000
          20.000000 13.333333 -0.600000
          -20.000000 70.000000 -0.600000
          -20.000000 50.000000 -0.600000
          -20.000000 30.000000 -0.600000
          -20.000000 60.000000 -0.600000
          -20.000000 40.000000 -0.600000
          -20.000000 20.000000 -0.600000
          -20.000000 66.666667 -0.600000
          -20.000000 63.333333 -0.600000
          -20.000000 56.666667 -0.600000
          -20.000000 53.333333 -0.600000
          -20.000000 46.666667 -0.600000
          -20.000000 43.333333 -0.600000
          -20.000000 36.666667 -0.600000
          -20.000000 33.333333 -0.600000
          -20.000000 26.666667 -0.600000
          -20.000000 23.333333 -0.600000
          -20.000000 16.666667 -0.600000
          -20.000000 13.333333 -0.600000
          -20.000000 6.666667 -0.600000
          20.000000 6.666667 -0.600000
          20.000000 0.000000 -0.600000
          -20.000000 3.333333 -0.600000
          20.000000 3.333333 -0.600000
          -20.000000 0.000000 -0.600000
          20.000000 10.000000 -0.600000
          -20.000000 10.000000 -0.600000
          -20.000000 71.666667 -0.600000
          -20.000000 68.333333 -0.600000
          -20.000000 65.000000 -0.600000
          -20.000000 61.666667 -0.600000
          -20.000000 58.333333 -0.600000
          -20.000000 55.000000 -0.600000
          -20.000000 51.666667 -0.600000
          -20.000000 48.333333 -0.600000
          -20.000000 45.000000 -0.600000
          -20.000000 41.666667 -0.600000
          -20.000000 38.333333 -0.600000
          -20.000000 35.000000 -0.600000
          -20.000000 31.666667 -0.600000
          -20.000000 28.333333 -0.600000
          -20.000000 25.000000 -0.600000
          -20.000000 21.666667 -0.600000
          -20.000000 18.333333 -0.600000
          -20.000000 15.000000 -0.600000
          -20.000000 11.666667 -0.600000
          -20.000000 8.333333 -0.600000
          -20.000000 1.666667 -0.600000
          -20.000000 5.000000 -0.600000
          20.000000 71.666667 -0.600000
          20.000000 68.333333 -0.600000
          20.000000 65.000000 -0.600000
          20.000000 61.666667 -0.600000
          20.000000 58.333333 -0.600000
          20.000000 55.000000 -0.600000
          20.000000 51.666667 -0.600000
          20.000000 48.333333 -0.600000
          20.000000 45.000000 -0.600000
          20.000000 41.666667 -0.600000
          20.000000 38.333333 -0.600000
          20.000000 35.000000 -0.600000
          20.000000 31.666667 -0.600000
          20.000000 28.333333 -0.600000
          20.000000 25.000000 -0.600000
          20.000000 21.666667 -0.600000
          20.000000 18.333333 -0.600000
          20.000000 15.000000 -0.600000
          20.000000 11.666667 -0.600000
          20.000000 8.333333 -0.600000
          20.000000 1.666667 -0.600000
          20.000000 5.000000 -0.600000
          20.000000 68.333333 0.600000
          -20.000000 66.666667 0.600000
          20.000000 18.333333 0.600000
          20.000000 8.333333 0.600000
          20.000000 65.000000 0.600000
          -20.000000 35.000000 0.600000
          -20.000000 38.333333 0.600000
          20.000000 5.000000 0.600000
          -20.000000 56.666667 0.600000
          20.000000 26.666667 0.600000
          -20.000000 55.000000 0.600000
          20.000000 48.333333 0.600000
          20.000000 70.000000 0.600000
          20.000000 71.666667 0.600000
          -20.000000 60.000000 0.600000
          -20.000000 28.333333 0.600000
          20.000000 23.333333 0.600000
          20.000000 38.333333 0.600000
          -20.000000 25.000000 0.600000
          -20.000000 23.333333 0.600000
          -20.000000 63.333333 0.600000
          -20.000000 70.000000 0.600000
          20.000000 63.333333 0.600000
          -20.000000 43.333333 0.600000
          20.000000 45.000000 0.600000
          20.000000 3.333333 0.600000
          -20.000000 45.000000 0.600000
          -20.000000 21.666667 0.600000
          -20.000000 48.333333 0.600000
          -20.000000 41.666667 0.600000
          -20.000000 5.000000 0.600000
          20.000000 36.666667 0.600000
          20.000000 58.333333 0.600000
          -20.000000 50.000000 0.600000
          -20.000000 33.333333 0.600000
          20.000000 51.666667 0.600000
          -20.000000 40.000000 0.600000
          -20.000000 31.666667 0.600000
          -20.000000 71.666667 0.600000
          20.000000 40.000000 0.600000
          20.000000 60.000000 0.600000
          -20.000000 58.333333 0.600000
          -20.000000 0.000000 0.600000
          -20.000000 61.666667 0.600000
          20.000000 43.333333 0.600000
          20.000000 53.333333 0.600000
          20.000000 33.333333 0.600000
          -20.000000 18.333333 0.600000
          -20.000000 13.333333 0.600000
          -20.000000 53.333333 0.600000
          20.000000 16.666667 0.600000
          20.000000 13.333333 0.600000
          20.000000 1.666667 0.600000
          -20.000000 51.666667 0.600000
          -20.000000 1.666667 0.600000
          20.000000 50.000000 0.600000
          -20.000000 65.000000 0.600000
          20.000000 61.666667 0.600000
          -20.000000 15.000000 0.600000
          20.000000 56.666667 0.600000
          20.000000 66.666667 0.600000
          -20.000000 3.333333 0.600000
          -20.000000 26.666667 0.600000
          20.000000 15.000000 0.600000
          20.000000 55.000000 0.600000
          20.000000 35.000000 0.600000
          20.000000 0.000000 0.600000
          20.000000 6.666667 0.600000
          20.000000 10.000000 0.600000
          -20.000000 36.666667 0.600000
          20.000000 20.000000 0.600000
          -20.000000 46.666667 0.600000
          20.000000 46.666667 0.600000
          20.000000 28.333333 0.600000
          20.000000 21.666667 0.600000
          20.000000 25.000000 0.600000
          20.000000 30.000000 0.600000
          -20.000000 30.000000 0.600000
          -20.000000 11.666667 0.600000
          -20.000000 16.666667 0.600000
          -20.000000 68.333333 0.600000
          20.000000 41.666667 0.600000
          -20.000000 10.000000 0.600000
          20.000000 11.666667 0.600000
          -20.000000 6.666667 0.600000
          20.000000 31.666667 0.600000
          -20.000000 8.333333 0.600000
          -20.000000 20.000000 0.600000
        </DataArray>
      </Points>
        <Cells>
          <DataArray type="Int32" Name="connectivity" format="ascii" RangeMin="0" RangeMax="2199">
            18 44 126 109
            18 109 168 45
            45 168 89 24
            2 100 101 66
            67 88 100 2
            6 148 88 67
            24 89 144 46
            46 144 108 25
            25 108 131 47
            47 131 102 21
            21 102 129 48
            48 129 96 26
            26 96 98 49
            49 98 137 27
            27 137 141 50
            50 141 121 19
            19 121 116 51
            51 116 159 28
            28 159 114 52
            52 114 111 29
            29 111 117 53
            53 117 124 22
            22 124 94 54
            54 94 157 30
            30 157 93 55
            55 93 122 31
            31 122 125 56
            56 125 165 20
            20 165 103 57
            57 103 150 32
            32 150 106 58
            58 106 107 33
            33 107 115 59
            59 115 175 23
            23 175 135 60
            60 135 167 34
            34 167 146 61
            61 146 136 35
            35 136 166 62
            62 166 170 43
            43 170 174 63
            63 174 172 36
            7 110 92 68
            68 92 148 6
            3 128 145 69
            69 145 110 7
            70 120 128 3
            8 147 120 70
            9 133 152 71
            71 152 147 8
            0 143 123 72
            72 123 133 9
            73 99 143 0
            10 160 99 73
            11 132 112 74
            74 112 160 10
            4 127 169 75
            75 169 132 11
            76 105 127 4
            12 119 105 76
            13 134 153 77
            77 153 119 12
            1 164 173 78
            78 173 134 13
            79 161 164 1
            14 97 161 79
            15 104 163 80
            80 163 97 14
            5 158 162 81
            81 162 104 15
            82 90 158 5
            16 138 90 82
            17 139 151 83
            83 151 138 16
            42 156 171 84
            84 171 139 17
            85 91 156 42
            37 155 91 85
            86 140 113 40
            38 154 140 86
            40 113 95 87
            87 95 155 37
            39 149 142 64
            64 142 130 41
            65 118 149 39
            36 172 118 65
          </DataArray>
          <DataArray type="Int32" Name="offsets" format="ascii" RangeMin="4" RangeMax="344">
            4 8 12 16 20 24 
            28 32 36 40 44 48 
            52 56 60 64 68 72 
            76 80 84 88 92 96 
            100 104 108 112 116 120 
            124 128 132 136 140 144 
            148 152 156 160 164 168 
            172 176 180 184 188 192 
            196 200 204 208 212 216 
            220 224 228 232 236 240 
            244 248 252 256 260 264 
            268 272 276 280 284 288 
            292 296 300 304 308 312 
            316 320 324 328 332 336 
            340 344 
          </DataArray>
          <DataArray type="UInt8" Name="types" format="ascii" RangeMin="9" RangeMax="9">
            9 9 9 9 9 9 
            9 9 9 9 9 9 
            9 9 9 9 9 9 
            9 9 9 9 9 9 
            9 9 9 9 9 9 
            9 9 9 9 9 9 
            9 9 9 9 9 9 
            9 9 9 9 9 9 
            9 9 9 9 9 9 
            9 9 9 9 9 9 
            9 9 9 9 9 9 
            9 9 9 9 9 9 
            9 9 9 9 9 9 
            9 9 9 9 9 9 
            9 9           </DataArray>
        </Cells>
      </Piece>
    </UnstructuredGrid>
</VTKFile>
