<VTKFile type="UnstructuredGrid" version="0.1" byte_order="LittleEndian">
  <UnstructuredGrid>
    <Piece NumberOfPoints="165" NumberOfCells="128">
      <PointData Scalars="FFID">
        <DataArray type="Int32" Name="FFID" format="ascii">
          21
          22
          23
          24
          25
          41
          45
          49
          62
          73
          74
          78
          79
          83
          98
          100
          106
          108
          111
          113
          115
          117
          119
          121
          125
          129
          134
          136
          139
          140
          146
          147
          149
          153
          155
          159
          161
          163
          164
          166
          173
          175
          177
          181
          184
          186
          188
          191
          192
          196
          199
          205
          213
          214
          216
          218
          220
          221
          227
          228
          229
          231
          235
          237
          238
          246
          249
          253
          257
          261
          264
          266
          270
          272
          278
          279
          281
          284
          285
          287
          291
          292
          293
          294
          299
          301
          305
          310
          311
          312
          313
          316
          319
          321
          323
          331
          332
          336
          340
          342
          344
          345
          349
          350
          352
          354
          355
          358
          361
          362
          371
          386
          387
          388
          390
          396
          399
          402
          407
          412
          413
          414
          415
          416
          418
          420
          424
          426
          429
          430
          432
          434
          436
          440
          442
          444
          445
          446
          447
          452
          458
          464
          469
          470
          471
          472
          475
          476
          478
          481
          484
          485
          486
          490
          492
          494
          495
          498
          500
          506
          508
          511
          517
          518
          519
        </DataArray>
        </PointData>
      <Points>
        <DataArray type="Float32" Name="Points" NumberOfComponents="3" format="ascii" RangeMin="0" RangeMax="1.0">
          0.000000 1.875000 0.881794
          1.415099 1.415099 0.881794
          0.730284 1.781250 0.881794
          1.781250 0.730284 0.881794
          1.875000 0.000000 0.881794
          0.000000 1.875000 0.000000
          -0.000000 1.875000 -2.400000
          1.875000 0.000000 -0.881794
          1.415099 1.415099 -0.881794
          1.781250 0.730284 -0.881794
          1.875000 0.000000 -0.000000
          -0.000000 1.875000 -0.881794
          1.781250 0.730284 -2.400000
          1.781250 0.730284 0.000000
          0.730284 1.781250 0.000000
          1.875000 0.000000 -2.400000
          0.730284 1.781250 -2.400000
          0.730284 1.781250 -0.881794
          1.415099 1.415099 -0.000000
          1.415099 1.415099 -2.400000
          1.781250 0.730284 2.500000
          0.000000 1.875000 2.500000
          1.875000 0.000000 2.500000
          1.415099 1.415099 2.500000
          0.730284 1.781250 2.500000
          1.875000 0.000000 -3.050000
          1.781250 0.730284 -3.050000
          1.415099 1.415099 -3.050000
          -0.000000 1.875000 -3.050000
          0.730284 1.781250 -3.050000
          1.781250 0.730284 -3.650000
          1.875000 0.000000 -3.650000
          -0.000000 1.875000 -3.650000
          0.730284 1.781250 -3.650000
          1.415099 1.415099 -3.650000
          0.730284 1.781250 3.100000
          1.875000 0.000000 3.100000
          1.415099 1.415099 3.100000
          1.781250 0.730284 3.100000
          0.000000 1.875000 3.100000
          1.875000 0.000000 3.700000
          0.730284 1.781250 3.700000
          1.781250 0.730284 3.700000
          -0.000000 1.875000 3.700000
          1.415099 1.415099 3.700000
          0.730284 1.781250 -4.325000
          1.875000 0.000000 -4.325000
          -0.000000 1.875000 -4.325000
          1.415099 1.415099 -4.325000
          1.781250 0.730284 -4.325000
          1.875000 0.000000 4.300000
          1.781250 0.730284 5.700000
          1.781250 0.730284 4.300000
          0.730284 1.781250 5.000000
          1.781250 0.730284 5.000000
          1.875000 0.000000 5.700000
          1.415099 1.415099 4.300000
          1.415099 1.415099 5.700000
          0.000000 1.875000 4.300000
          1.875000 0.000000 5.000000
          1.415099 1.415099 5.000000
          0.000000 1.875000 5.000000
          0.730284 1.781250 5.700000
          0.730284 1.781250 4.300000
          0.000000 1.875000 5.700000
          0.000000 1.875000 8.500000
          1.781250 0.730284 8.500000
          1.781250 0.730284 7.100000
          1.875000 0.000000 7.800000
          1.415099 1.415099 6.400000
          1.415099 1.415099 8.500000
          1.415099 1.415099 9.900000
          1.415099 1.415099 7.100000
          1.875000 0.000000 9.200000
          1.875000 0.000000 9.900000
          0.730284 1.781250 6.400000
          0.000000 1.875000 7.800000
          1.875000 0.000000 6.400000
          -0.000000 1.875000 9.900000
          1.415099 1.415099 9.200000
          1.781250 0.730284 7.800000
          1.781250 0.730284 9.900000
          0.730284 1.781250 9.200000
          0.000000 1.875000 9.200000
          1.781250 0.730284 6.400000
          0.730284 1.781250 7.100000
          1.415099 1.415099 7.800000
          0.730284 1.781250 8.500000
          0.000000 1.875000 6.400000
          1.875000 0.000000 7.100000
          0.730284 1.781250 9.900000
          0.000000 1.875000 7.100000
          1.875000 0.000000 8.500000
          0.730284 1.781250 7.800000
          1.781250 0.730284 9.200000
          1.875000 0.000000 12.000000
          0.730284 1.781250 10.600000
          0.000000 1.875000 12.000000
          1.781250 0.730284 11.300000
          1.781250 0.730284 12.000000
          0.730284 1.781250 12.000000
          1.875000 0.000000 10.600000
          0.730284 1.781250 11.300000
          1.781250 0.730284 10.600000
          1.415099 1.415099 12.000000
          1.875000 0.000000 11.300000
          1.415099 1.415099 11.300000
          1.415099 1.415099 10.600000
          0.000000 1.875000 11.300000
          0.000000 1.875000 10.600000
          1.875000 0.000000 -5.000000
          1.781250 0.730284 -7.800000
          1.781250 0.730284 -5.700000
          1.781250 0.730284 -6.400000
          1.875000 0.000000 -7.100000
          1.875000 0.000000 -12.000000
          1.875000 0.000000 -11.300000
          1.875000 0.000000 -10.600000
          -0.000000 1.875000 -11.300000
          1.781250 0.730284 -9.900000
          0.730284 1.781250 -7.800000
          0.000000 1.875000 -12.000000
          1.875000 0.000000 -9.900000
          -0.000000 1.875000 -6.400000
          0.730284 1.781250 -10.600000
          1.781250 0.730284 -7.100000
          0.730284 1.781250 -8.500000
          1.875000 0.000000 -9.200000
          0.730284 1.781250 -7.100000
          1.415099 1.415099 -10.600000
          1.781250 0.730284 -5.000000
          0.730284 1.781250 -11.300000
          1.415099 1.415099 -7.100000
          1.781250 0.730284 -9.200000
          1.875000 0.000000 -8.500000
          1.781250 0.730284 -12.000000
          -0.000000 1.875000 -7.100000
          -0.000000 1.875000 -9.200000
          1.415099 1.415099 -8.500000
          0.000000 1.875000 -10.600000
          0.000000 1.875000 -5.000000
          1.781250 0.730284 -10.600000
          0.000000 1.875000 -5.700000
          1.415099 1.415099 -5.000000
          0.730284 1.781250 -5.700000
          1.415099 1.415099 -11.300000
          1.875000 0.000000 -5.700000
          0.730284 1.781250 -6.400000
          1.415099 1.415099 -9.200000
          0.730284 1.781250 -9.900000
          1.415099 1.415099 -5.700000
          -0.000000 1.875000 -7.800000
          0.730284 1.781250 -5.000000
          1.415099 1.415099 -12.000000
          0.000000 1.875000 -9.900000
          1.781250 0.730284 -11.300000
          0.730284 1.781250 -12.000000
          0.730284 1.781250 -9.200000
          -0.000000 1.875000 -8.500000
          1.415099 1.415099 -9.900000
          1.875000 0.000000 -7.800000
          1.415099 1.415099 -6.400000
          1.875000 0.000000 -6.400000
          1.781250 0.730284 -8.500000
          1.415099 1.415099 -7.800000
        </DataArray>
      </Points>
        <Cells>
          <DataArray type="Int32" Name="connectivity" format="ascii" RangeMin="0" RangeMax="771">
            1 23 24 2
            3 20 23 1
            1 2 14 18
            18 13 3 1
            18 14 17 8
            14 2 0 5
            2 24 21 0
            3 20 22 4
            13 10 4 3
            13 18 8 9
            14 5 11 17
            10 13 9 7
            9 12 19 8
            23 37 38 20
            23 24 35 37
            22 20 38 36
            7 15 12 9
            17 16 19 8
            21 39 35 24
            11 6 16 17
            6 28 29 16
            12 26 25 15
            26 30 31 25
            12 19 27 26
            16 29 27 19
            29 33 34 27
            27 34 30 26
            28 32 33 29
            39 43 41 35
            35 41 44 37
            38 42 40 36
            37 44 42 38
            30 34 48 49
            30 49 46 31
            33 45 48 34
            32 47 45 33
            49 48 143 130
            49 130 110 46
            45 152 143 48
            47 140 152 45
            42 52 50 40
            44 56 52 42
            43 58 63 41
            41 63 56 44
            52 54 59 50
            63 53 60 56
            58 61 53 63
            56 60 54 52
            152 144 150 143
            140 142 144 152
            143 150 112 130
            130 112 146 110
            75 85 72 69
            75 62 57 69
            69 57 51 84
            69 72 67 84
            62 64 88 75
            88 91 85 75
            62 53 60 57
            57 60 54 51
            53 61 64 62
            54 59 55 51
            51 84 77 55
            84 67 89 77
            78 109 96 90
            90 71 107 96
            78 83 82 90
            109 108 102 96
            80 68 92 66
            80 67 89 68
            66 92 73 94
            80 86 70 66
            96 102 106 107
            107 71 81 103
            107 106 98 103
            90 82 79 71
            71 79 94 81
            79 82 87 70
            82 87 65 83
            79 70 66 94
            81 94 73 74
            81 74 101 103
            103 98 105 101
            91 76 93 85
            85 72 86 93
            76 65 87 93
            93 86 70 87
            86 72 67 80
            106 98 99 104
            106 102 100 104
            98 105 95 99
            108 97 100 102
            112 113 162 146
            147 144 150 161
            147 123 142 144
            150 161 113 112
            161 147 128 132
            147 128 136 123
            161 132 125 113
            124 131 145 129
            124 149 159 129
            129 145 155 141
            129 141 119 159
            131 118 139 124
            124 139 154 149
            131 156 153 145
            145 153 135 155
            156 121 118 131
            134 160 111 163
            163 133 127 134
            163 138 164 111
            111 125 114 160
            138 148 133 163
            111 164 132 125
            116 155 135 115
            155 116 117 141
            141 119 122 117
            125 114 162 113
            128 120 164 132
            149 157 148 159
            154 137 157 149
            159 148 133 119
            119 122 127 133
            157 126 138 148
            120 151 136 128
            164 120 126 138
            126 158 151 120
            158 137 157 126
          </DataArray>
          <DataArray type="Int32" Name="offsets" format="ascii" RangeMin="4" RangeMax="512">
            4 8 12 16 20 24 
            28 32 36 40 44 48 
            52 56 60 64 68 72 
            76 80 84 88 92 96 
            100 104 108 112 116 120 
            124 128 132 136 140 144 
            148 152 156 160 164 168 
            172 176 180 184 188 192 
            196 200 204 208 212 216 
            220 224 228 232 236 240 
            244 248 252 256 260 264 
            268 272 276 280 284 288 
            292 296 300 304 308 312 
            316 320 324 328 332 336 
            340 344 348 352 356 360 
            364 368 372 376 380 384 
            388 392 396 400 404 408 
            412 416 420 424 428 432 
            436 440 444 448 452 456 
            460 464 468 472 476 480 
            484 488 492 496 500 504 
            508 512 
          </DataArray>
          <DataArray type="UInt8" Name="types" format="ascii" RangeMin="9" RangeMax="9">
            9 9 9 9 9 9 
            9 9 9 9 9 9 
            9 9 9 9 9 9 
            9 9 9 9 9 9 
            9 9 9 9 9 9 
            9 9 9 9 9 9 
            9 9 9 9 9 9 
            9 9 9 9 9 9 
            9 9 9 9 9 9 
            9 9 9 9 9 9 
            9 9 9 9 9 9 
            9 9 9 9 9 9 
            9 9 9 9 9 9 
            9 9 9 9 9 9 
            9 9 9 9 9 9 
            9 9 9 9 9 9 
            9 9 9 9 9 9 
            9 9 9 9 9 9 
            9 9 9 9 9 9 
            9 9 9 9 9 9 
            9 9 9 9 9 9 
            9 9 
          </DataArray>
        </Cells>
      </Piece>
    </UnstructuredGrid>
</VTKFile>
