<VTKFile type="UnstructuredGrid" version="0.1" byte_order="LittleEndian">
  <UnstructuredGrid>
    <Piece NumberOfPoints="77" NumberOfCells="64">
      <PointData Scalars="FFID">
        <DataArray type="Int32" Name="FFID" format="ascii">
          525
          527
          529
          531
          536
          541
          543
          544
          547
          551
          552
          557
          558
          562
          568
          580
          582
          583
          591
          594
          595
          601
          608
          610
          613
          614
          615
          617
          624
          629
          633
          639
          642
          643
          650
          657
          662
          664
          670
          674
          680
          683
          685
          687
          690
          691
          693
          694
          696
          697
          700
          702
          704
          708
          709
          710
          712
          715
          718
          720
          721
          722
          723
          728
          729
          732
          733
          738
          751
          756
          757
          760
          762
          764
          765
          768
          769
        </DataArray>
        </PointData>
      <Points>
        <DataArray type="Float32" Name="Points" NumberOfComponents="3" format="ascii" RangeMin="0" RangeMax="1.0">
          0.793820 0.212290 -0.523236
          0.826933 0.432719 0.359000
          0.391343 0.747863 -0.513321
          0.835559 0.000000 0.537021
          0.877748 0.234734 -0.369301
          0.369301 0.188475 -0.888830
          0.915140 0.240141 -0.171677
          0.577400 0.577400 0.577400
          0.650399 0.342790 -0.677800
          0.342790 0.650399 0.677800
          0.185424 0.681179 -0.689950
          0.835559 0.000000 -0.537021
          0.612990 0.612990 -0.439121
          0.000000 0.000000 1.000000
          0.577400 0.577400 -0.577400
          0.432719 0.826933 0.359000
          0.369301 0.188475 0.888830
          0.212290 0.793820 0.523236
          0.747863 0.391343 0.513321
          0.185424 0.681179 0.689950
          0.963138 0.000000 0.175974
          0.000000 1.000000 0.000000
          0.963138 0.000000 -0.175974
          0.712375 0.712375 -0.130479
          0.826933 0.432719 -0.359000
          0.793820 0.212290 0.523236
          0.212290 0.793820 -0.523236
          0.237622 0.915808 0.171624
          -0.000000 0.835559 -0.537021
          0.862058 0.448307 -0.168627
          -0.000000 0.963129 -0.175905
          0.000000 0.963129 0.175905
          0.877748 0.234734 0.369301
          0.188475 0.369301 -0.888830
          0.707100 0.000000 -0.707100
          0.677800 0.677800 0.284800
          0.712375 0.712375 0.130479
          0.359000 0.359000 0.861500
          0.650399 0.342790 0.677800
          0.234734 0.877748 -0.369301
          0.681179 0.185424 0.689950
          0.945720 0.250756 -0.000000
          0.391343 0.747863 0.513321
          0.445933 0.863296 0.168589
          0.923900 0.000000 0.382700
          0.359000 0.359000 -0.861500
          1.000000 0.000000 -0.000000
          0.237622 0.915808 -0.171624
          -0.000000 0.707100 -0.707100
          0.862058 0.448307 0.168627
          0.209346 0.188475 0.939455
          0.445933 0.863296 -0.168589
          -0.000000 0.000000 -1.000000
          0.612990 0.612990 0.439121
          0.923900 0.000000 -0.382700
          0.461767 0.887030 -0.000000
          0.681179 0.185424 -0.689950
          0.000000 0.382700 0.923900
          0.250756 0.945720 -0.000000
          0.342790 0.650399 -0.677800
          0.432719 0.826933 -0.359000
          0.188475 0.369301 0.888830
          0.887030 0.461767 0.000000
          -0.000000 0.382700 -0.923900
          0.915140 0.240141 0.171677
          0.747863 0.391343 -0.513321
          0.677800 0.677800 -0.284800
          0.000000 0.707100 0.707100
          0.707100 0.707100 -0.000000
          0.209346 0.188475 -0.939455
          0.234734 0.877748 0.369301
          0.382700 0.000000 0.923900
          0.000000 0.923900 0.382700
          0.000000 0.835559 0.537021
          0.000000 0.923900 -0.382700
          0.707100 0.000000 0.707100
          0.382700 0.000000 -0.923900
        </DataArray>
      </Points>
        <Cells>
          <DataArray type="Int32" Name="connectivity" format="ascii" RangeMin="0" RangeMax="771">
            12 2 60 66
            66 24 65 12
            19 17 42 9
            19 61 37 9
            19 67 73 17
            19 61 57 67
            51 47 58 55
            51 60 39 47
            29 6 4 24
            62 41 6 29
            42 9 7 53
            42 53 35 15
            51 23 68 55
            51 23 66 60
            23 68 62 29
            23 66 24 29
            64 41 62 49
            49 36 68 62
            49 1 35 36
            74 28 26 39
            74 30 47 39
            9 37 38 7
            7 38 18 53
            4 24 65 0
            4 54 11 0
            2 59 14 12
            64 32 1 49
            22 6 4 54
            63 33 69 52
            61 50 16 37
            43 27 58 55
            43 36 68 55
            48 10 33 63
            37 16 40 38
            26 10 48 28
            26 2 59 10
            75 40 25 3
            50 13 57 61
            3 25 32 44
            65 8 56 0
            14 12 65 8
            14 59 45 8
            8 45 5 56
            73 72 70 17
            59 45 33 10
            70 15 42 17
            56 34 76 5
            34 56 0 11
            25 40 38 18
            18 25 32 1
            70 15 43 27
            70 72 31 27
            20 64 41 46
            35 15 43 36
            60 39 26 2
            45 5 69 33
            50 16 71 13
            20 64 32 44
            75 71 16 40
            5 76 52 69
            31 21 58 27
            46 41 6 22
            58 21 30 47
            18 53 35 1
          </DataArray>
          <DataArray type="Int32" Name="offsets" format="ascii" RangeMin="4" RangeMax="256">
            4 8 12 16 20 24 
            28 32 36 40 44 48 
            52 56 60 64 68 72 
            76 80 84 88 92 96 
            100 104 108 112 116 120 
            124 128 132 136 140 144 
            148 152 156 160 164 168 
            172 176 180 184 188 192 
            196 200 204 208 212 216 
            220 224 228 232 236 240 
            244 248 252 256 
          </DataArray>
          <DataArray type="UInt8" Name="types" format="ascii" RangeMin="9" RangeMax="9">
            9 9 9 9 9 9 
            9 9 9 9 9 9 
            9 9 9 9 9 9 
            9 9 9 9 9 9 
            9 9 9 9 9 9 
            9 9 9 9 9 9 
            9 9 9 9 9 9 
            9 9 9 9 9 9 
            9 9 9 9 9 9 
            9 9 9 9 9 9 
            9 9 9 9 
          </DataArray>
        </Cells>
      </Piece>
    </UnstructuredGrid>
</VTKFile>
