<VTKFile type="UnstructuredGrid" version="0.1" byte_order="LittleEndian">
  <UnstructuredGrid>
    <Piece NumberOfPoints="191" NumberOfCells="145">
      <PointData Scalars="FFID">
        <DataArray type="Int32" Name="FFID" format="ascii">
          4
          12
          14
          15
          18
          21
          26
          29
          32
          39
          41
          42
          45
          50
          53
          57
          58
          61
          67
          68
          69
          70
          75
          78
          80
          87
          89
          96
          102
          109
          114
          117
          118
          123
          124
          131
          139
          141
          142
          149
          150
          151
          154
          160
          162
          166
          167
          172
          180
          181
          183
          187
          191
          195
          197
          203
          204
          206
          208
          223
          224
          227
          231
          234
          238
          239
          240
          243
          244
          245
          246
          247
          254
          265
          277
          280
          281
          282
          285
          289
          290
          294
          296
          298
          303
          306
          307
          311
          314
          316
          324
          326
          327
          329
          334
          336
          338
          341
          347
          357
          361
          362
          365
          368
          369
          372
          374
          376
          377
          384
          389
          391
          392
          393
          401
          404
          407
          408
          411
          414
          416
          417
          425
          428
          435
          445
          446
          449
          451
          452
          454
          455
          456
          457
          458
          461
          463
          469
          482
          485
          487
          492
          493
          500
          504
          507
          513
          528
          534
          540
          546
          550
          561
          562
          563
          569
          575
          576
          589
          601
          611
          623
          624
          633
          634
          635
          638
          639
          652
          656
          688
          696
          699
          703
          704
          705
          714
          715
          716
          717
          728
          731
          738
          739
          745
          749
          758
          759
          762
          764
          765
        </DataArray>
        </PointData>
      <Points>
        <DataArray type="Float32" Name="Points" NumberOfComponents="3" format="ascii" RangeMin="0" RangeMax="1.0">
          -0.000000 1.686894 0.529221
          0.000000 1.077732 1.606954
          -0.000000 0.000000 1.841691
          0.000000 0.583295 1.725702
          0.000000 1.551934 1.395265
          0.000000 1.875000 0.881794
          0.000000 0.000000 2.222730
          0.000000 1.208632 2.011042
          0.000000 0.683699 2.222730
          0.000000 1.462445 2.011042
          0.000000 1.875000 0.000000
          -0.000000 0.000000 -2.222730
          -0.000000 1.875000 -2.400000
          -0.000000 0.000000 -2.540263
          -0.000000 0.748425 -2.540263
          -0.000000 1.462445 -2.011042
          -0.000000 0.000000 -2.804874
          -0.000000 0.341850 -2.222730
          -0.000000 0.683699 -2.222730
          -0.000000 0.374213 -2.804874
          -0.000000 1.323054 -2.540263
          -0.000000 1.551934 -1.395265
          0.000000 1.686894 -0.529221
          -0.000000 1.875000 -0.881794
          -0.000000 0.374213 -2.540263
          -0.000000 1.208632 -2.011042
          0.000000 0.291648 -1.778625
          0.000000 0.000000 -1.841691
          -0.000000 0.583295 -1.725702
          -0.000000 1.077732 -1.606954
          0.000000 1.686894 0.000000
          0.000000 1.875000 2.500000
          0.000000 1.250000 2.500000
          0.000000 0.707100 2.500000
          0.000000 0.000000 2.500000
          -0.000000 0.000000 -3.050000
          -0.000000 1.875000 -3.050000
          -0.000000 1.250000 -3.050000
          -0.000000 0.707100 -3.050000
          -0.000000 1.875000 -3.650000
          -0.000000 0.000000 -3.650000
          -0.000000 1.250000 -3.650000
          -0.000000 0.707100 -3.650000
          0.000000 1.250000 3.100000
          0.000000 0.000000 3.100000
          0.000000 1.875000 3.100000
          0.000000 0.707100 3.100000
          -0.000000 1.250000 3.700000
          -0.000000 0.707100 3.700000
          -0.000000 1.875000 3.700000
          -0.000000 0.000000 3.700000
          -0.000000 1.250000 -4.325000
          -0.000000 1.875000 -4.325000
          -0.000000 0.000000 -4.325000
          -0.000000 0.707100 -4.325000
          0.000000 0.000000 5.000000
          0.000000 1.250000 5.700000
          0.000000 0.000000 4.300000
          0.000000 0.707100 5.000000
          0.000000 0.000000 5.700000
          0.000000 0.707100 5.700000
          0.000000 1.875000 4.300000
          0.000000 1.875000 5.000000
          0.000000 1.250000 5.000000
          0.000000 1.875000 5.700000
          0.000000 1.250000 4.300000
          0.000000 0.707100 4.300000
          0.000000 1.250000 7.800000
          0.000000 0.000000 9.200000
          0.000000 0.000000 8.500000
          0.000000 1.875000 8.500000
          0.000000 0.000000 6.400000
          0.000000 0.707100 8.500000
          0.000000 0.707100 7.800000
          0.000000 1.250000 7.100000
          0.000000 0.707100 9.200000
          0.000000 1.875000 7.800000
          0.000000 0.707100 6.400000
          -0.000000 1.875000 9.900000
          0.000000 0.000000 7.100000
          0.000000 1.250000 9.200000
          0.000000 1.875000 9.200000
          0.000000 0.707100 7.100000
          -0.000000 0.707100 9.900000
          -0.000000 0.000000 9.900000
          0.000000 1.250000 8.500000
          0.000000 0.000000 7.800000
          0.000000 1.875000 6.400000
          -0.000000 1.250000 9.900000
          0.000000 1.875000 7.100000
          0.000000 1.250000 6.400000
          0.000000 0.707100 10.600000
          0.000000 0.000000 11.300000
          0.000000 1.250000 10.600000
          0.000000 0.707100 11.300000
          0.000000 1.875000 12.000000
          0.000000 0.707100 12.000000
          0.000000 0.000000 10.600000
          0.000000 1.250000 12.000000
          0.000000 0.000000 12.000000
          0.000000 1.875000 11.300000
          0.000000 1.875000 10.600000
          0.000000 1.250000 11.300000
          -0.000000 0.707100 -7.800000
          -0.000000 0.000000 -8.500000
          0.000000 1.250000 -10.600000
          -0.000000 0.000000 -6.400000
          -0.000000 0.707100 -7.100000
          0.000000 1.250000 -9.900000
          -0.000000 0.000000 -9.200000
          0.000000 0.707100 -10.600000
          -0.000000 1.250000 -8.500000
          0.000000 0.000000 -5.700000
          -0.000000 0.707100 -9.200000
          -0.000000 0.707100 -8.500000
          0.000000 1.250000 -5.000000
          -0.000000 1.875000 -11.300000
          -0.000000 1.250000 -6.400000
          -0.000000 1.250000 -7.800000
          0.000000 1.875000 -12.000000
          -0.000000 1.875000 -6.400000
          -0.000000 0.707100 -11.300000
          -0.000000 1.250000 -9.200000
          -0.000000 0.707100 -6.400000
          -0.000000 1.250000 -11.300000
          -0.000000 1.875000 -7.100000
          -0.000000 1.875000 -9.200000
          -0.000000 0.000000 -7.100000
          0.000000 0.000000 -10.600000
          0.000000 1.875000 -10.600000
          0.000000 0.000000 -12.000000
          0.000000 1.250000 -5.700000
          0.000000 0.000000 -9.900000
          0.000000 0.000000 -5.000000
          0.000000 1.875000 -5.000000
          0.000000 0.707100 -5.000000
          -0.000000 0.000000 -7.800000
          0.000000 1.875000 -5.700000
          0.000000 0.707100 -12.000000
          -0.000000 1.875000 -7.800000
          -0.000000 1.250000 -7.100000
          0.000000 1.875000 -9.900000
          0.000000 1.250000 -12.000000
          -0.000000 1.875000 -8.500000
          -0.000000 0.000000 -11.300000
          0.000000 0.707100 -9.900000
          0.000000 0.707100 -5.700000
          -0.000000 0.583295 -1.408169
          -0.000000 1.319319 -0.276481
          -0.000000 0.472469 -1.140617
          -0.000000 0.000000 -1.234568
          0.000000 1.524158 0.000000
          0.000000 0.000000 1.524158
          0.000000 0.000000 1.000000
          -0.000000 1.031554 -0.662989
          -0.000000 1.189049 -0.217166
          0.000000 0.291648 -1.461092
          0.000000 1.146171 0.715485
          -0.000000 1.146171 -0.715485
          0.000000 1.000000 0.000000
          0.000000 0.583295 1.408169
          0.000000 1.234568 0.000000
          -0.000000 0.835559 -0.537021
          -0.000000 0.963129 -0.175905
          0.000000 1.267353 0.524966
          -0.000000 0.872963 -0.872963
          0.000000 0.872963 0.872963
          0.000000 0.963129 0.175905
          -0.000000 0.000000 -1.365391
          0.000000 1.077732 1.077732
          0.000000 1.140617 0.472469
          -0.000000 0.707100 -0.707100
          -0.000000 0.291648 -1.302325
          0.000000 0.000000 1.234568
          -0.000000 0.000000 -1.000000
          0.000000 0.472469 1.140617
          0.000000 1.189049 0.217166
          0.000000 0.382700 0.923900
          -0.000000 0.000000 -1.524158
          0.000000 1.319319 0.276481
          -0.000000 0.382700 -0.923900
          -0.000000 1.077732 -1.077732
          0.000000 0.707100 0.707100
          0.000000 1.031554 0.662989
          0.000000 1.408169 0.583295
          -0.000000 1.408169 -0.583295
          -0.000000 1.140617 -0.472469
          -0.000000 1.267353 -0.524966
          0.000000 0.923900 0.382700
          0.000000 0.835559 0.537021
          0.000000 0.923900 -0.382700
        </DataArray>
      </Points>
        <Cells>
          <DataArray type="Int32" Name="connectivity" format="ascii" RangeMin="0" RangeMax="771">
            4 9 7 1
            4 184 169 1
            184 0 5 4
            169 160 3 1
            30 151 184 0
            30 10 5 0
            151 185 22 30
            5 31 9 4
            1 7 8 3
            160 152 2 3
            185 21 23 22
            22 23 10 30
            3 8 6 2
            31 9 7 32
            8 33 32 7
            8 6 34 33
            32 43 45 31
            23 21 15 12
            33 46 43 32
            34 44 46 33
            181 185 21 29
            181 29 28 147
            29 25 15 21
            29 28 18 25
            25 20 12 15
            25 20 14 18
            18 17 26 28
            26 156 147 28
            12 20 37 36
            18 17 24 14
            35 16 19 38
            35 40 42 38
            14 38 19 24
            14 20 37 38
            13 11 17 24
            13 24 19 16
            26 17 11 27
            38 42 41 37
            37 41 39 36
            26 27 178 156
            43 46 48 47
            43 47 49 45
            44 50 48 46
            41 42 54 51
            41 51 52 39
            40 53 54 42
            52 51 115 134
            54 135 115 51
            53 133 135 54
            48 66 65 47
            47 65 61 49
            50 57 66 48
            57 55 58 66
            65 63 62 61
            66 58 63 65
            115 131 137 134
            135 146 131 115
            133 112 146 135
            90 87 64 56
            90 74 89 87
            63 56 64 62
            77 90 56 60
            59 60 58 55
            59 71 77 60
            58 63 56 60
            71 79 82 77
            77 82 74 90
            97 91 83 84
            97 92 94 91
            84 68 75 83
            83 88 93 91
            91 94 102 93
            83 75 80 88
            88 93 101 78
            88 80 81 78
            101 93 102 100
            86 69 72 73
            86 79 82 73
            69 68 75 72
            73 67 85 72
            82 73 67 74
            81 70 85 80
            72 85 80 75
            89 74 67 76
            76 67 85 70
            94 96 98 102
            94 92 99 96
            100 102 98 95
            112 106 123 146
            120 117 131 137
            117 123 146 131
            120 125 140 117
            105 129 116 124
            105 108 141 129
            142 124 116 119
            110 105 124 121
            104 136 103 114
            104 109 113 114
            111 114 103 118
            107 103 136 127
            142 138 121 124
            138 130 144 121
            123 117 140 107
            107 127 106 123
            107 140 118 103
            108 122 126 141
            105 110 145 108
            118 140 125 139
            111 118 139 143
            114 113 122 111
            111 122 126 143
            145 113 122 108
            110 128 132 145
            132 109 113 145
            128 144 121 110
            157 183 166 169
            157 164 184 169
            182 166 183 189
            182 177 175 166
            151 185 187 148
            184 151 179 164
            151 148 155 161
            179 151 161 176
            190 186 154 162
            190 186 155 163
            148 187 186 155
            150 149 180 174
            165 149 147 181
            165 154 158 181
            149 165 171 180
            171 165 154 162
            169 166 175 160
            175 177 153 173
            183 170 188 189
            164 170 183 157
            164 179 176 170
            185 187 158 181
            188 170 176 167
            168 172 156 178
            168 172 149 150
            158 187 186 154
            172 156 147 149
            176 161 159 167
            160 175 173 152
            159 161 155 163
          </DataArray>
          <DataArray type="Int32" Name="offsets" format="ascii" RangeMin="4" RangeMax="580">
            4 8 12 16 20 24 
            28 32 36 40 44 48 
            52 56 60 64 68 72 
            76 80 84 88 92 96 
            100 104 108 112 116 120 
            124 128 132 136 140 144 
            148 152 156 160 164 168 
            172 176 180 184 188 192 
            196 200 204 208 212 216 
            220 224 228 232 236 240 
            244 248 252 256 260 264 
            268 272 276 280 284 288 
            292 296 300 304 308 312 
            316 320 324 328 332 336 
            340 344 348 352 356 360 
            364 368 372 376 380 384 
            388 392 396 400 404 408 
            412 416 420 424 428 432 
            436 440 444 448 452 456 
            460 464 468 472 476 480 
            484 488 492 496 500 504 
            508 512 516 520 524 528 
            532 536 540 544 548 552 
            556 560 564 568 572 576 
            580 
          </DataArray>
          <DataArray type="UInt8" Name="types" format="ascii" RangeMin="9" RangeMax="9">
            9 9 9 9 9 9 
            9 9 9 9 9 9 
            9 9 9 9 9 9 
            9 9 9 9 9 9 
            9 9 9 9 9 9 
            9 9 9 9 9 9 
            9 9 9 9 9 9 
            9 9 9 9 9 9 
            9 9 9 9 9 9 
            9 9 9 9 9 9 
            9 9 9 9 9 9 
            9 9 9 9 9 9 
            9 9 9 9 9 9 
            9 9 9 9 9 9 
            9 9 9 9 9 9 
            9 9 9 9 9 9 
            9 9 9 9 9 9 
            9 9 9 9 9 9 
            9 9 9 9 9 9 
            9 9 9 9 9 9 
            9 9 9 9 9 9 
            9 9 9 9 9 9 
            9 9 9 9 9 9 
            9 9 9 9 9 9 
            9 
          </DataArray>
        </Cells>
      </Piece>
    </UnstructuredGrid>
</VTKFile>
