<VTKFile type="UnstructuredGrid" version="0.1" byte_order="LittleEndian">
  <UnstructuredGrid>
    <Piece NumberOfPoints="191" NumberOfCells="145">
      <PointData Scalars="FFID">
        <DataArray type="Int32" Name="FFID" format="ascii">
          3
          8
          10
          14
          19
          25
          26
          33
          34
          36
          42
          43
          46
          48
          49
          50
          52
          54
          58
          59
          64
          65
          71
          72
          74
          81
          88
          90
          96
          100
          101
          116
          119
          120
          124
          129
          131
          133
          137
          143
          147
          150
          152
          157
          161
          162
          170
          173
          176
          179
          183
          188
          194
          195
          198
          199
          203
          206
          207
          211
          215
          217
          218
          222
          223
          228
          232
          244
          245
          247
          250
          252
          256
          257
          260
          263
          267
          268
          271
          272
          273
          274
          275
          278
          284
          289
          295
          303
          307
          312
          319
          325
          327
          330
          331
          337
          341
          345
          346
          348
          354
          357
          366
          367
          369
          371
          373
          374
          381
          384
          385
          390
          392
          394
          396
          397
          399
          400
          402
          405
          415
          426
          427
          441
          442
          449
          451
          453
          454
          456
          457
          463
          465
          466
          468
          475
          477
          479
          488
          489
          497
          499
          504
          508
          509
          512
          517
          524
          531
          546
          548
          549
          555
          557
          560
          561
          562
          579
          586
          595
          605
          608
          640
          644
          647
          650
          651
          652
          654
          660
          667
          668
          682
          686
          690
          693
          701
          703
          704
          706
          709
          716
          725
          740
          743
          747
          750
          760
          767
          768
          769
        </DataArray>
        </PointData>
      <Points>
        <DataArray type="Float32" Name="Points" NumberOfComponents="3" format="ascii" RangeMin="0" RangeMax="1.0">
          1.686894 0.000000 0.529221
          0.583295 0.000000 1.725702
          1.077732 0.000000 1.395265
          -0.000000 0.000000 1.841691
          1.551934 0.000000 1.183576
          1.875000 0.000000 0.881794
          0.000000 0.000000 2.222730
          0.683699 0.000000 2.222730
          1.208632 0.000000 2.011042
          1.462445 0.000000 2.011042
          -0.000000 0.000000 -2.222730
          0.748425 0.000000 -2.540263
          0.374213 0.000000 -2.540263
          0.583295 0.000000 -1.725702
          1.875000 0.000000 -0.881794
          -0.000000 0.000000 -2.540263
          1.551934 0.000000 -1.183576
          1.323054 0.000000 -2.540263
          -0.000000 0.000000 -2.804874
          1.077732 0.000000 -1.395265
          1.686894 0.000000 0.000000
          1.686894 0.000000 -0.529221
          0.683699 0.000000 -2.222730
          0.374213 0.000000 -2.804874
          1.875000 0.000000 -0.000000
          0.341850 0.000000 -2.222730
          1.208632 0.000000 -2.011042
          0.291648 0.000000 -1.725702
          0.000000 0.000000 -1.841691
          1.875000 0.000000 -2.400000
          1.462445 0.000000 -2.011042
          1.250000 0.000000 2.500000
          1.875000 0.000000 2.500000
          0.707100 0.000000 2.500000
          0.000000 0.000000 2.500000
          1.875000 0.000000 -3.050000
          -0.000000 0.000000 -3.050000
          0.707100 0.000000 -3.050000
          1.250000 0.000000 -3.050000
          1.250000 0.000000 -3.650000
          1.875000 0.000000 -3.650000
          -0.000000 0.000000 -3.650000
          0.707100 0.000000 -3.650000
          0.707100 0.000000 3.100000
          1.875000 0.000000 3.100000
          0.000000 0.000000 3.100000
          1.250000 0.000000 3.100000
          1.875000 0.000000 3.700000
          1.250000 0.000000 3.700000
          0.707100 0.000000 3.700000
          -0.000000 0.000000 3.700000
          1.875000 0.000000 -4.325000
          0.707100 0.000000 -4.325000
          -0.000000 0.000000 -4.325000
          1.250000 0.000000 -4.325000
          1.875000 0.000000 4.300000
          0.000000 0.000000 5.000000
          0.000000 0.000000 4.300000
          0.707100 0.000000 5.000000
          0.707100 0.000000 4.300000
          1.250000 0.000000 5.000000
          1.250000 0.000000 5.700000
          1.875000 0.000000 5.700000
          1.250000 0.000000 4.300000
          0.000000 0.000000 5.700000
          1.875000 0.000000 5.000000
          0.707100 0.000000 5.700000
          0.000000 0.000000 9.200000
          0.000000 0.000000 8.500000
          0.000000 0.000000 6.400000
          0.707100 0.000000 6.400000
          1.250000 0.000000 7.100000
          1.250000 0.000000 7.800000
          1.875000 0.000000 7.800000
          0.707100 0.000000 9.200000
          1.250000 0.000000 6.400000
          0.707100 0.000000 8.500000
          1.250000 0.000000 8.500000
          0.707100 0.000000 9.900000
          1.875000 0.000000 9.200000
          1.250000 0.000000 9.200000
          1.250000 0.000000 9.900000
          0.707100 0.000000 7.800000
          1.875000 0.000000 9.900000
          1.875000 0.000000 6.400000
          0.000000 0.000000 7.100000
          0.707100 0.000000 7.100000
          -0.000000 0.000000 9.900000
          0.000000 0.000000 7.800000
          1.875000 0.000000 7.100000
          1.875000 0.000000 8.500000
          0.707100 0.000000 11.300000
          0.000000 0.000000 11.300000
          0.707100 0.000000 10.600000
          1.875000 0.000000 12.000000
          1.250000 0.000000 12.000000
          0.000000 0.000000 10.600000
          1.875000 0.000000 10.600000
          1.250000 0.000000 10.600000
          0.707100 0.000000 12.000000
          1.875000 0.000000 11.300000
          0.000000 0.000000 12.000000
          1.250000 0.000000 11.300000
          0.707100 0.000000 -7.100000
          -0.000000 0.000000 -8.500000
          1.875000 0.000000 -5.000000
          0.707100 0.000000 -9.900000
          -0.000000 0.000000 -6.400000
          0.707100 0.000000 -12.000000
          -0.000000 0.000000 -9.200000
          1.250000 0.000000 -8.500000
          1.875000 0.000000 -7.100000
          0.000000 0.000000 -5.700000
          1.250000 0.000000 -9.200000
          1.875000 0.000000 -12.000000
          1.250000 0.000000 -12.000000
          1.875000 0.000000 -11.300000
          1.250000 0.000000 -9.900000
          1.875000 0.000000 -10.600000
          1.250000 0.000000 -7.100000
          1.875000 0.000000 -9.900000
          1.875000 0.000000 -9.200000
          1.250000 0.000000 -5.000000
          0.707100 0.000000 -10.600000
          1.875000 0.000000 -8.500000
          -0.000000 0.000000 -7.100000
          0.000000 0.000000 -10.600000
          0.707100 0.000000 -7.800000
          0.000000 0.000000 -12.000000
          0.000000 0.000000 -9.900000
          0.000000 0.000000 -5.000000
          -0.000000 0.000000 -7.800000
          0.707100 0.000000 -5.700000
          0.707100 0.000000 -9.200000
          1.250000 0.000000 -5.700000
          1.875000 0.000000 -5.700000
          0.707100 0.000000 -11.300000
          1.250000 0.000000 -11.300000
          0.707100 0.000000 -6.400000
          1.250000 0.000000 -10.600000
          0.707100 0.000000 -5.000000
          0.707100 0.000000 -8.500000
          -0.000000 0.000000 -11.300000
          1.875000 0.000000 -7.800000
          1.250000 0.000000 -7.800000
          1.250000 0.000000 -6.400000
          1.875000 0.000000 -6.400000
          1.077732 0.000000 -1.077732
          0.835559 0.000000 0.537021
          -0.000000 0.000000 -1.234568
          1.319333 0.000000 0.276576
          1.234568 0.000000 -0.000000
          1.146171 0.000000 -0.715485
          0.835559 0.000000 -0.537021
          0.583295 0.000000 -1.408169
          0.000000 0.000000 1.524158
          0.000000 0.000000 1.000000
          0.472469 0.000000 1.140617
          1.524158 0.000000 -0.000000
          0.963138 0.000000 0.175974
          1.031554 0.000000 0.662989
          0.963138 0.000000 -0.175974
          1.031554 0.000000 -0.662989
          1.408169 0.000000 0.583295
          1.408169 0.000000 -0.583295
          0.707100 0.000000 -0.707100
          0.291648 0.000000 -1.429338
          -0.000000 0.000000 -1.365391
          1.267353 0.000000 0.524966
          1.140617 0.000000 0.472469
          1.189060 0.000000 0.217252
          0.583295 0.000000 1.408169
          1.146171 0.000000 0.715485
          0.872963 0.000000 -0.872963
          0.923900 0.000000 0.382700
          1.000000 0.000000 -0.000000
          1.189060 0.000000 -0.217252
          0.000000 0.000000 1.234568
          -0.000000 0.000000 -1.000000
          1.140617 0.000000 -0.472469
          0.923900 0.000000 -0.382700
          -0.000000 0.000000 -1.524158
          1.267353 0.000000 -0.524966
          0.291648 0.000000 -1.323494
          1.319333 0.000000 -0.276576
          0.872963 0.000000 0.872963
          0.472469 0.000000 -1.140617
          0.382700 0.000000 0.923900
          1.077732 0.000000 1.077732
          0.707100 0.000000 0.707100
          0.382700 0.000000 -0.923900
        </DataArray>
      </Points>
        <Cells>
          <DataArray type="Int32" Name="connectivity" format="ascii" RangeMin="0" RangeMax="771">
            2 8 9 4
            2 188 163 4
            2 1 171 188
            4 5 0 163
            1 7 8 2
            1 3 155 171
            4 5 32 9
            0 5 24 20
            0 163 158 20
            158 20 21 164
            3 6 7 1
            20 24 14 21
            21 14 16 164
            9 32 31 8
            7 33 31 8
            32 44 46 31
            16 30 29 14
            7 33 34 6
            31 46 43 33
            33 43 45 34
            154 13 27 166
            154 147 19 13
            147 164 16 19
            19 26 22 13
            13 27 25 22
            16 30 26 19
            11 17 26 22
            11 17 38 37
            11 12 23 37
            11 22 25 12
            17 29 35 38
            26 30 29 17
            37 38 39 42
            37 23 18 36
            37 42 41 36
            35 40 39 38
            12 25 10 15
            12 15 18 23
            27 28 10 25
            27 166 181 28
            43 49 50 45
            44 47 48 46
            46 48 49 43
            40 51 54 39
            39 54 52 42
            42 52 53 41
            51 105 122 54
            54 122 140 52
            52 140 130 53
            47 55 63 48
            48 63 59 49
            49 59 57 50
            63 60 58 59
            59 58 56 57
            55 65 60 63
            122 134 132 140
            140 132 112 130
            105 135 134 122
            66 64 56 58
            66 70 69 64
            58 66 61 60
            66 70 75 61
            70 86 85 69
            70 75 71 86
            65 60 61 62
            62 84 75 61
            84 89 71 75
            78 93 96 87
            78 93 98 81
            93 91 92 96
            87 78 74 67
            78 81 80 74
            93 98 102 91
            72 77 76 82
            72 71 86 82
            82 76 68 88
            82 86 85 88
            77 90 73 72
            73 89 71 72
            77 80 74 76
            76 74 67 68
            80 79 90 77
            81 83 79 80
            98 97 83 81
            97 100 102 98
            100 102 95 94
            95 102 91 99
            91 99 101 92
            134 145 138 132
            135 146 145 134
            112 132 138 107
            141 127 131 104
            141 127 144 110
            141 110 113 133
            141 133 109 104
            144 119 103 127
            103 125 131 127
            110 144 143 124
            110 124 121 113
            143 111 119 144
            137 115 108 136
            137 116 114 115
            136 142 128 108
            137 136 123 139
            139 118 116 137
            118 120 117 139
            139 117 106 123
            119 103 138 145
            145 146 111 119
            138 107 125 103
            120 117 113 121
            117 106 133 113
            123 106 129 126
            106 133 109 129
            123 136 142 126
            168 150 170 169
            150 158 151 170
            179 176 184 182
            164 158 184 182
            180 179 162 153
            176 161 180 179
            151 158 184 176
            186 173 147 154
            186 183 166 154
            189 148 160 185
            147 152 182 164
            179 182 152 162
            148 174 169 160
            168 172 160 169
            168 163 158 150
            163 188 172 168
            188 172 160 185
            188 171 157 185
            186 190 165 173
            165 153 162 173
            159 175 151 170
            152 147 173 162
            183 167 181 166
            167 149 186 183
            177 156 187 157
            169 170 159 174
            185 157 187 189
            186 149 178 190
            171 155 177 157
            151 175 161 176
          </DataArray>
          <DataArray type="Int32" Name="offsets" format="ascii" RangeMin="4" RangeMax="580">
            4 8 12 16 20 24 
            28 32 36 40 44 48 
            52 56 60 64 68 72 
            76 80 84 88 92 96 
            100 104 108 112 116 120 
            124 128 132 136 140 144 
            148 152 156 160 164 168 
            172 176 180 184 188 192 
            196 200 204 208 212 216 
            220 224 228 232 236 240 
            244 248 252 256 260 264 
            268 272 276 280 284 288 
            292 296 300 304 308 312 
            316 320 324 328 332 336 
            340 344 348 352 356 360 
            364 368 372 376 380 384 
            388 392 396 400 404 408 
            412 416 420 424 428 432 
            436 440 444 448 452 456 
            460 464 468 472 476 480 
            484 488 492 496 500 504 
            508 512 516 520 524 528 
            532 536 540 544 548 552 
            556 560 564 568 572 576 
            580 
          </DataArray>
          <DataArray type="UInt8" Name="types" format="ascii" RangeMin="9" RangeMax="9">
            9 9 9 9 9 9 
            9 9 9 9 9 9 
            9 9 9 9 9 9 
            9 9 9 9 9 9 
            9 9 9 9 9 9 
            9 9 9 9 9 9 
            9 9 9 9 9 9 
            9 9 9 9 9 9 
            9 9 9 9 9 9 
            9 9 9 9 9 9 
            9 9 9 9 9 9 
            9 9 9 9 9 9 
            9 9 9 9 9 9 
            9 9 9 9 9 9 
            9 9 9 9 9 9 
            9 9 9 9 9 9 
            9 9 9 9 9 9 
            9 9 9 9 9 9 
            9 9 9 9 9 9 
            9 9 9 9 9 9 
            9 9 9 9 9 9 
            9 9 9 9 9 9 
            9 9 9 9 9 9 
            9 9 9 9 9 9 
            9 
          </DataArray>
        </Cells>
      </Piece>
    </UnstructuredGrid>
</VTKFile>
