<VTKFile type="UnstructuredGrid" version="0.1" byte_order="LittleEndian">
  <UnstructuredGrid>
    <Piece NumberOfPoints="81" NumberOfCells="64">
      <PointData Scalars="FFID">
        <DataArray type="Int32" Name="FFID" format="ascii">
          1866
          1867
          1868
          1869
          1870
          1871
          1872
          1873
          1874
          1875
          1876
          1877
          1878
          1879
          1880
          1881
          1882
          1883
          1884
          1885
          1886
          1887
          1888
          1889
          1890
          1891
          1892
          1893
          1894
          1895
          1896
          1897
          1898
          1899
          1900
          1901
          1902
          1903
          1904
          1905
          1906
          1907
          1908
          1909
          1910
          1911
          1912
          1913
          1914
          1915
          1916
          1917
          1918
          1919
          1920
          1921
          1922
          1923
          1924
          1925
          1926
          1927
          1928
          1929
          1930
          1931
          1932
          1933
          1934
          1935
          1936
          1937
          1938
          1939
          1940
          1941
          1942
          1943
          1944
          1945
          1946
        </DataArray>
        </PointData>
      <Points>
        <DataArray type="Float32" Name="Points" NumberOfComponents="3" format="ascii" RangeMin="0" RangeMax="1.0">
          -0.500000 -0.500000 3.000000
          -0.375000 -0.500000 3.000000
          -0.250000 -0.500000 3.000000
          -0.125000 -0.500000 3.000000
          0.000000 -0.500000 3.000000
          0.125000 -0.500000 3.000000
          0.250000 -0.500000 3.000000
          0.375000 -0.500000 3.000000
          0.500000 -0.500000 3.000000
          -0.500000 -0.375000 3.000000
          -0.375000 -0.375000 3.000000
          -0.250000 -0.375000 3.000000
          -0.125000 -0.375000 3.000000
          0.000000 -0.375000 3.000000
          0.125000 -0.375000 3.000000
          0.250000 -0.375000 3.000000
          0.375000 -0.375000 3.000000
          0.500000 -0.375000 3.000000
          -0.500000 -0.250000 3.000000
          -0.375000 -0.250000 3.000000
          -0.250000 -0.250000 3.000000
          -0.125000 -0.250000 3.000000
          0.000000 -0.250000 3.000000
          0.125000 -0.250000 3.000000
          0.250000 -0.250000 3.000000
          0.375000 -0.250000 3.000000
          0.500000 -0.250000 3.000000
          -0.500000 -0.125000 3.000000
          -0.375000 -0.125000 3.000000
          -0.250000 -0.125000 3.000000
          -0.125000 -0.125000 3.000000
          0.000000 -0.125000 3.000000
          0.125000 -0.125000 3.000000
          0.250000 -0.125000 3.000000
          0.375000 -0.125000 3.000000
          0.500000 -0.125000 3.000000
          -0.500000 0.000000 3.000000
          -0.375000 0.000000 3.000000
          -0.250000 0.000000 3.000000
          -0.125000 0.000000 3.000000
          0.000000 0.000000 3.000000
          0.125000 0.000000 3.000000
          0.250000 0.000000 3.000000
          0.375000 0.000000 3.000000
          0.500000 0.000000 3.000000
          -0.500000 0.125000 3.000000
          -0.375000 0.125000 3.000000
          -0.250000 0.125000 3.000000
          -0.125000 0.125000 3.000000
          0.000000 0.125000 3.000000
          0.125000 0.125000 3.000000
          0.250000 0.125000 3.000000
          0.375000 0.125000 3.000000
          0.500000 0.125000 3.000000
          -0.500000 0.250000 3.000000
          -0.375000 0.250000 3.000000
          -0.250000 0.250000 3.000000
          -0.125000 0.250000 3.000000
          0.000000 0.250000 3.000000
          0.125000 0.250000 3.000000
          0.250000 0.250000 3.000000
          0.375000 0.250000 3.000000
          0.500000 0.250000 3.000000
          -0.500000 0.375000 3.000000
          -0.375000 0.375000 3.000000
          -0.250000 0.375000 3.000000
          -0.125000 0.375000 3.000000
          0.000000 0.375000 3.000000
          0.125000 0.375000 3.000000
          0.250000 0.375000 3.000000
          0.375000 0.375000 3.000000
          0.500000 0.375000 3.000000
          -0.500000 0.500000 3.000000
          -0.375000 0.500000 3.000000
          -0.250000 0.500000 3.000000
          -0.125000 0.500000 3.000000
          0.000000 0.500000 3.000000
          0.125000 0.500000 3.000000
          0.250000 0.500000 3.000000
          0.375000 0.500000 3.000000
          0.500000 0.500000 3.000000
        </DataArray>
      </Points>
        <Cells>
          <DataArray type="Int32" Name="connectivity" format="ascii" RangeMin="0" RangeMax="2024">
            0 9 10 1
            1 10 11 2
            2 11 12 3
            3 12 13 4
            4 13 14 5
            5 14 15 6
            6 15 16 7
            7 16 17 8
            9 18 19 10
            10 19 20 11
            11 20 21 12
            12 21 22 13
            13 22 23 14
            14 23 24 15
            15 24 25 16
            16 25 26 17
            18 27 28 19
            19 28 29 20
            20 29 30 21
            21 30 31 22
            22 31 32 23
            23 32 33 24
            24 33 34 25
            25 34 35 26
            27 36 37 28
            28 37 38 29
            29 38 39 30
            30 39 40 31
            31 40 41 32
            32 41 42 33
            33 42 43 34
            34 43 44 35
            36 45 46 37
            37 46 47 38
            38 47 48 39
            39 48 49 40
            40 49 50 41
            41 50 51 42
            42 51 52 43
            43 52 53 44
            45 54 55 46
            46 55 56 47
            47 56 57 48
            48 57 58 49
            49 58 59 50
            50 59 60 51
            51 60 61 52
            52 61 62 53
            54 63 64 55
            55 64 65 56
            56 65 66 57
            57 66 67 58
            58 67 68 59
            59 68 69 60
            60 69 70 61
            61 70 71 62
            63 72 73 64
            64 73 74 65
            65 74 75 66
            66 75 76 67
            67 76 77 68
            68 77 78 69
            69 78 79 70
            70 79 80 71
          </DataArray>
          <DataArray type="Int32" Name="offsets" format="ascii" RangeMin="4" RangeMax="256">
            4 8 12 16 20 24 
            28 32 36 40 44 48 
            52 56 60 64 68 72 
            76 80 84 88 92 96 
            100 104 108 112 116 120 
            124 128 132 136 140 144 
            148 152 156 160 164 168 
            172 176 180 184 188 192 
            196 200 204 208 212 216 
            220 224 228 232 236 240 
            244 248 252 256 
          </DataArray>
          <DataArray type="UInt8" Name="types" format="ascii" RangeMin="9" RangeMax="9">
            9 9 9 9 9 9 
            9 9 9 9 9 9 
            9 9 9 9 9 9 
            9 9 9 9 9 9 
            9 9 9 9 9 9 
            9 9 9 9 9 9 
            9 9 9 9 9 9 
            9 9 9 9 9 9 
            9 9 9 9 9 9 
            9 9 9 9 9 9 
            9 9 9 9           </DataArray>
        </Cells>
      </Piece>
    </UnstructuredGrid>
</VTKFile>
