<VTKFile type="UnstructuredGrid" version="0.1" byte_order="LittleEndian">
  <UnstructuredGrid>
    <Piece NumberOfPoints="16" NumberOfCells="0">
      <PointData Scalars="FFID">
        <DataArray type="Int32" Name="FFID" format="ascii">
          23
          24
          25
          26
          27
          28
          33
          40
          41
          42
          44
          45
          47
          49
          50
          53
        </DataArray>
        </PointData>
      <Points>
        <DataArray type="Float32" Name="Points" NumberOfComponents="3" format="ascii" RangeMin="0" RangeMax="1.0">
          1.010000 0.105000 0.102500
          1.010000 0.205000 0.000000
          1.010000 0.305000 0.102500
          1.010000 0.205000 0.102500
          1.010000 0.305000 0.000000
          1.010000 0.105000 0.000000
          1.190000 0.305000 0.000000
          1.100000 0.105000 0.000000
          1.100000 0.105000 0.102500
          1.190000 0.105000 0.102500
          1.190000 0.305000 0.102500
          1.190000 0.205000 0.000000
          1.190000 0.205000 0.102500
          1.100000 0.305000 0.102500
          1.100000 0.305000 0.000000
          1.190000 0.105000 0.000000
        </DataArray>
      </Points>
        <Cells>
          <DataArray type="Int32" Name="connectivity" format="ascii" RangeMin="0" RangeMax="105">
          </DataArray>
          <DataArray type="Int32" Name="offsets" format="ascii" RangeMin="4" RangeMax="0">
                      </DataArray>
          <DataArray type="UInt8" Name="types" format="ascii" RangeMin="9" RangeMax="9">
            
          </DataArray>
        </Cells>
      </Piece>
    </UnstructuredGrid>
</VTKFile>
