<VTKFile type="UnstructuredGrid" version="0.1" byte_order="LittleEndian">
  <UnstructuredGrid>
    <Piece NumberOfPoints="106" NumberOfCells="40">
      <PointData Scalars="FFID">
        <DataArray type="Int32" Name="FFID" format="ascii">
          1
          2
          3
          4
          5
          6
          7
          8
          9
          10
          11
          12
          13
          14
          15
          16
          17
          18
          19
          20
          21
          22
          23
          24
          25
          26
          27
          28
          29
          30
          31
          32
          33
          34
          35
          36
          37
          38
          39
          40
          41
          42
          43
          44
          45
          46
          47
          48
          49
          50
          51
          52
          53
          54
          55
          56
          57
          58
          59
          60
          61
          62
          63
          64
          65
          66
          67
          68
          69
          70
          71
          72
          73
          74
          75
          76
          77
          78
          79
          80
          81
          82
          83
          84
          85
          86
          87
          88
          89
          90
          91
          92
          93
          94
          95
          96
          97
          98
          99
          100
          101
          102
          103
          104
          105
          106
        </DataArray>
      </PointData>
    <Points>
      <DataArray type="Float32" Name="Points" NumberOfComponents="3" format="ascii" RangeMin="0" RangeMax="1.0">
        0.000000 0.000000 0.000000
        0.550000 0.205000 0.000000
        0.550000 0.205000 0.102500
        0.710000 0.305000 0.000000
        0.710000 0.305000 0.102500
        0.710000 0.205000 0.102500
        0.710000 0.205000 0.000000
        0.710000 0.105000 0.000000
        0.710000 0.105000 0.102500
        0.810000 0.305000 0.102500
        0.810000 0.205000 0.000000
        0.810000 0.305000 0.000000
        0.810000 0.205000 0.102500
        0.810000 0.105000 0.102500
        0.810000 0.105000 0.000000
        0.910000 0.305000 0.000000
        0.910000 0.205000 0.000000
        0.910000 0.105000 0.000000
        0.910000 0.305000 0.102500
        0.910000 0.105000 0.102500
        0.910000 0.205000 0.102500
        1.010000 0.105000 0.102500
        1.010000 0.205000 0.000000
        1.010000 0.305000 0.102500
        1.010000 0.205000 0.102500
        1.010000 0.305000 0.000000
        1.010000 0.105000 0.000000
        1.490000 0.205000 0.000000
        1.390000 0.205000 0.102500
        1.390000 0.305000 0.102500
        1.290000 0.305000 0.000000
        1.190000 0.305000 0.000000
        1.650000 0.205000 0.000000
        1.390000 0.205000 0.000000
        1.650000 0.205000 0.102500
        1.290000 0.105000 0.102500
        1.290000 0.305000 0.102500
        1.290000 0.205000 0.102500
        1.100000 0.105000 0.000000
        1.100000 0.105000 0.102500
        1.190000 0.105000 0.102500
        1.490000 0.105000 0.000000
        1.190000 0.305000 0.102500
        1.190000 0.205000 0.000000
        1.100000 0.205000 0.102500
        1.190000 0.205000 0.102500
        1.490000 0.305000 0.102500
        1.100000 0.305000 0.102500
        1.100000 0.305000 0.000000
        1.390000 0.105000 0.000000
        1.390000 0.305000 0.000000
        1.190000 0.105000 0.000000
        1.100000 0.205000 0.000000
        1.490000 0.305000 0.000000
        1.490000 0.105000 0.102500
        1.290000 0.205000 0.000000
        1.490000 0.205000 0.102500
        1.290000 0.105000 0.000000
        1.390000 0.105000 0.102500
        0.000000 0.205000 0.000000
        0.000000 0.410000 0.000000
        0.000000 0.000000 0.102500
        0.000000 0.205000 0.102500
        0.000000 0.410000 0.102500
        2.200000 0.000000 -0.000000
        2.200000 0.410000 0.102500
        2.200000 0.205000 -0.000000
        2.200000 0.410000 -0.000000
        2.200000 0.000000 0.102500
        2.200000 0.205000 0.102500
        0.550000 0.410000 0.000000
        0.550000 0.410000 0.102500
        0.760000 0.410000 0.000000
        0.980000 0.410000 0.102500
        0.980000 0.410000 0.000000
        0.860000 0.410000 0.102500
        0.860000 0.410000 0.000000
        0.760000 0.410000 0.102500
        1.430000 0.410000 0.102500
        1.330000 0.410000 0.000000
        1.650000 0.410000 0.000000
        1.220000 0.410000 0.102500
        1.100000 0.410000 0.102500
        1.220000 0.410000 0.000000
        1.330000 0.410000 0.102500
        1.650000 0.410000 0.102500
        1.100000 0.410000 0.000000
        1.430000 0.410000 0.000000
        0.550000 0.000000 0.000000
        0.550000 0.000000 0.102500
        0.990000 0.000000 0.102500
        0.870000 0.000000 0.102500
        0.770000 0.000000 0.000000
        0.770000 0.000000 0.102500
        0.870000 0.000000 0.000000
        0.990000 0.000000 0.000000
        1.220000 0.000000 0.102500
        1.650000 0.000000 0.102500
        1.650000 0.000000 0.000000
        1.220000 0.000000 0.000000
        1.100000 0.000000 0.102500
        1.430000 0.000000 0.000000
        1.430000 0.000000 0.102500
        1.330000 0.000000 0.000000
        1.330000 0.000000 0.102500
        1.100000 0.000000 0.000000
      </DataArray>
    </Points>
      <Cells>
        <DataArray type="Int32" Name="connectivity" format="ascii" RangeMin="0" RangeMax="39">
          0 88 1 59 61 89 2 62
          88 7 6 1 89 8 5 2
          59 1 70 60 62 2 71 63
          6 3 70 1 5 4 71 2
          70 3 4 71 72 11 9 77
          3 4 5 6 11 9 12 10
          8 7 6 5 13 14 10 12
          88 7 8 89 92 14 13 93
          11 9 12 10 15 18 20 16
          13 14 10 12 19 17 16 20
          14 17 19 13 92 94 91 93
          11 15 18 9 72 76 75 77
          18 20 16 15 23 24 22 25
          18 15 25 23 75 76 74 73
          20 19 17 16 24 21 26 22
          19 17 26 21 91 94 95 90
          24 21 26 22 44 39 38 52
          23 24 22 25 47 44 52 48
          23 73 74 25 47 82 86 48
          21 90 95 26 39 100 105 38
          82 47 48 86 81 42 31 83
          35 40 51 57 104 96 99 103
          35 40 51 57 37 45 43 55
          39 100 96 40 38 105 99 51
          49 101 102 58 41 98 97 54
          49 101 102 58 57 103 104 35
          31 43 55 30 42 45 37 36
          31 48 52 43 42 47 44 45
          27 32 80 53 56 34 85 46
          27 32 34 56 41 98 97 54
          46 56 27 53 29 28 33 50
          68 97 98 64 69 34 32 66
          58 49 41 54 28 33 27 56
          58 49 33 28 35 57 55 37
          79 84 81 83 30 36 42 31
          36 37 28 29 30 55 33 50
          29 50 87 78 46 53 80 85
          29 50 87 78 36 30 79 84
          32 80 85 34 66 67 65 69
          45 40 51 43 44 39 38 52
        </DataArray>
        <DataArray type="Int32" Name="offsets" format="ascii" RangeMin="8" RangeMax="320">
          8 16 24 32 40 48 
          56 64 72 80 88 96 
          104 112 120 128 136 144 
          152 160 168 176 184 192 
          200 208 216 224 232 240 
          248 256 264 272 280 288 
          296 304 312 320 
        </DataArray>
        <DataArray type="UInt8" Name="types" format="ascii" RangeMin="12" RangeMax="12">
          12 12 12 12 12 12 
          12 12 12 12 12 12 
          12 12 12 12 12 12 
          12 12 12 12 12 12 
          12 12 12 12 12 12 
          12 12 12 12 12 12 
          12 12 12 12 
        </DataArray>
      </Cells>
    </Piece>
  </UnstructuredGrid>
</VTKFile>
