<VTKFile type="UnstructuredGrid" version="0.1" byte_order="LittleEndian">
  <UnstructuredGrid>
    <Piece NumberOfPoints="6" NumberOfCells="2">
      <PointData Scalars="FFID">
        <DataArray type="Int32" Name="FFID" format="ascii">
          66
          67
          68
          69
          70
          71
        </DataArray>
        </PointData>
      <Points>
        <DataArray type="Float32" Name="Points" NumberOfComponents="3" format="ascii" RangeMin="0" RangeMax="1.0">
          2.200000 0.000000 -0.000000
          2.200000 0.410000 0.102500
          2.200000 0.205000 -0.000000
          2.200000 0.410000 -0.000000
          2.200000 0.000000 0.102500
          2.200000 0.205000 0.102500
        </DataArray>
      </Points>
        <Cells>
          <DataArray type="Int32" Name="connectivity" format="ascii" RangeMin="0" RangeMax="105">
            4 0 2 5
            2 5 1 3
          </DataArray>
          <DataArray type="Int32" Name="offsets" format="ascii" RangeMin="4" RangeMax="8">
            4 8 
          </DataArray>
          <DataArray type="UInt8" Name="types" format="ascii" RangeMin="9" RangeMax="9">
            9 9 
          </DataArray>
        </Cells>
      </Piece>
    </UnstructuredGrid>
</VTKFile>
