<VTKFile type="UnstructuredGrid" version="0.1" byte_order="LittleEndian">
  <UnstructuredGrid>
    <Piece NumberOfPoints="53" NumberOfCells="40">
      <PointData Scalars="FFID">
        <DataArray type="Int32" Name="FFID" format="ascii">
          2
          3
          5
          8
          9
          12
          13
          16
          17
          18
          19
          24
          27
          28
          29
          32
          33
          34
          35
          40
          43
          45
          50
          51
          52
          53
          54
          55
          57
          59
          61
          62
          66
          68
          69
          72
          74
          76
          78
          81
          82
          85
          88
          89
          90
          94
          96
          97
          100
          101
          103
          105
          107
        </DataArray>
        </PointData>
      <Points>
        <DataArray type="Float32" Name="Points" NumberOfComponents="3" format="ascii" RangeMin="0" RangeMax="1.0">
          0.000000 0.000000 0.000000
          0.550000 0.205000 0.000000
          0.710000 0.305000 0.000000
          0.710000 0.205000 0.000000
          0.710000 0.105000 0.000000
          0.810000 0.205000 0.000000
          0.810000 0.305000 0.000000
          0.810000 0.105000 0.000000
          0.910000 0.305000 0.000000
          0.910000 0.205000 0.000000
          0.910000 0.105000 0.000000
          1.010000 0.205000 0.000000
          1.010000 0.305000 0.000000
          1.010000 0.105000 0.000000
          1.490000 0.205000 0.000000
          1.290000 0.305000 0.000000
          1.190000 0.305000 0.000000
          1.650000 0.205000 0.000000
          1.390000 0.205000 0.000000
          1.100000 0.105000 0.000000
          1.490000 0.105000 0.000000
          1.190000 0.205000 0.000000
          1.100000 0.305000 0.000000
          1.390000 0.105000 0.000000
          1.390000 0.305000 0.000000
          1.190000 0.105000 0.000000
          1.100000 0.205000 0.000000
          1.490000 0.305000 0.000000
          1.290000 0.205000 0.000000
          1.290000 0.105000 0.000000
          0.000000 0.205000 0.000000
          0.000000 0.410000 0.000000
          2.200000 0.000000 -0.000000
          2.200000 0.205000 -0.000000
          2.200000 0.410000 -0.000000
          0.550000 0.410000 0.000000
          0.760000 0.410000 0.000000
          0.980000 0.410000 0.000000
          0.860000 0.410000 0.000000
          1.330000 0.410000 0.000000
          1.650000 0.410000 0.000000
          1.220000 0.410000 0.000000
          1.100000 0.410000 0.000000
          1.430000 0.410000 0.000000
          0.550000 0.000000 0.000000
          0.770000 0.000000 0.000000
          0.870000 0.000000 0.000000
          0.990000 0.000000 0.000000
          1.650000 0.000000 0.000000
          1.220000 0.000000 0.000000
          1.430000 0.000000 0.000000
          1.330000 0.000000 0.000000
          1.100000 0.000000 0.000000
        </DataArray>
      </Points>
        <Cells>
          <DataArray type="Int32" Name="connectivity" format="ascii" RangeMin="0" RangeMax="105">
            0 44 1 30
            44 4 3 1
            30 1 35 31
            3 2 35 1
            35 36 6 2
            2 3 5 6
            4 7 5 3
            44 45 7 4
            6 5 9 8
            7 10 9 5
            7 45 46 10
            6 36 38 8
            9 11 12 8
            8 38 37 12
            10 13 11 9
            10 46 47 13
            13 19 26 11
            11 26 22 12
            37 42 22 12
            47 52 19 13
            22 16 41 42
            25 49 51 29
            25 21 28 29
            19 25 49 52
            23 20 48 50
            23 29 51 50
            16 21 28 15
            16 22 26 21
            14 17 40 27
            14 20 48 17
            14 18 24 27
            48 17 33 32
            23 18 14 20
            23 29 28 18
            39 41 16 15
            15 24 18 28
            24 27 40 43
            24 15 39 43
            17 33 34 40
            25 19 26 21
          </DataArray>
          <DataArray type="Int32" Name="offsets" format="ascii" RangeMin="4" RangeMax="160">
            4 8 12 16 20 24 
            28 32 36 40 44 48 
            52 56 60 64 68 72 
            76 80 84 88 92 96 
            100 104 108 112 116 120 
            124 128 132 136 140 144 
            148 152 156 160 
          </DataArray>
          <DataArray type="UInt8" Name="types" format="ascii" RangeMin="9" RangeMax="9">
            9 9 9 9 9 9 
            9 9 9 9 9 9 
            9 9 9 9 9 9 
            9 9 9 9 9 9 
            9 9 9 9 9 9 
            9 9 9 9 9 9 
            9 9 9 9 
          </DataArray>
        </Cells>
      </Piece>
    </UnstructuredGrid>
</VTKFile>
