<VTKFile type="UnstructuredGrid" version="0.1" byte_order="LittleEndian">
  <UnstructuredGrid>
    <Piece NumberOfPoints="53" NumberOfCells="40">
      <PointData Scalars="FFID">
        <DataArray type="Int32" Name="FFID" format="ascii">
          4
          6
          7
          10
          11
          14
          15
          20
          21
          22
          23
          25
          26
          30
          31
          36
          37
          38
          39
          41
          42
          44
          46
          47
          48
          49
          56
          58
          60
          63
          64
          65
          67
          70
          71
          73
          75
          77
          79
          80
          83
          84
          86
          87
          91
          92
          93
          95
          98
          99
          102
          104
          106
        </DataArray>
        </PointData>
      <Points>
        <DataArray type="Float32" Name="Points" NumberOfComponents="3" format="ascii" RangeMin="0" RangeMax="1.0">
          0.550000 0.205000 0.102500
          0.710000 0.305000 0.102500
          0.710000 0.205000 0.102500
          0.710000 0.105000 0.102500
          0.810000 0.305000 0.102500
          0.810000 0.205000 0.102500
          0.810000 0.105000 0.102500
          0.910000 0.305000 0.102500
          0.910000 0.105000 0.102500
          0.910000 0.205000 0.102500
          1.010000 0.105000 0.102500
          1.010000 0.305000 0.102500
          1.010000 0.205000 0.102500
          1.390000 0.205000 0.102500
          1.390000 0.305000 0.102500
          1.650000 0.205000 0.102500
          1.290000 0.105000 0.102500
          1.290000 0.305000 0.102500
          1.290000 0.205000 0.102500
          1.100000 0.105000 0.102500
          1.190000 0.105000 0.102500
          1.190000 0.305000 0.102500
          1.100000 0.205000 0.102500
          1.190000 0.205000 0.102500
          1.490000 0.305000 0.102500
          1.100000 0.305000 0.102500
          1.490000 0.105000 0.102500
          1.490000 0.205000 0.102500
          1.390000 0.105000 0.102500
          0.000000 0.000000 0.102500
          0.000000 0.205000 0.102500
          0.000000 0.410000 0.102500
          2.200000 0.410000 0.102500
          2.200000 0.000000 0.102500
          2.200000 0.205000 0.102500
          0.550000 0.410000 0.102500
          0.980000 0.410000 0.102500
          0.860000 0.410000 0.102500
          0.760000 0.410000 0.102500
          1.430000 0.410000 0.102500
          1.220000 0.410000 0.102500
          1.100000 0.410000 0.102500
          1.330000 0.410000 0.102500
          1.650000 0.410000 0.102500
          0.550000 0.000000 0.102500
          0.990000 0.000000 0.102500
          0.870000 0.000000 0.102500
          0.770000 0.000000 0.102500
          1.220000 0.000000 0.102500
          1.650000 0.000000 0.102500
          1.100000 0.000000 0.102500
          1.430000 0.000000 0.102500
          1.330000 0.000000 0.102500
        </DataArray>
      </Points>
        <Cells>
          <DataArray type="Int32" Name="connectivity" format="ascii" RangeMin="0" RangeMax="105">
            29 30 0 44
            44 0 2 3
            30 31 35 0
            2 0 35 1
            1 4 38 35
            1 4 5 2
            3 2 5 6
            3 6 47 44
            4 7 9 5
            6 5 9 8
            8 46 47 6
            7 37 38 4
            7 11 12 9
            7 11 36 37
            9 12 10 8
            8 10 45 46
            12 22 19 10
            11 25 22 12
            11 25 41 36
            10 19 50 45
            41 40 21 25
            16 52 48 20
            16 18 23 20
            19 50 48 20
            51 49 26 28
            51 52 16 28
            21 17 18 23
            21 23 22 25
            27 24 43 15
            15 49 26 27
            24 14 13 27
            33 34 15 49
            28 26 27 13
            28 13 18 16
            42 17 21 40
            17 18 13 14
            14 39 43 24
            14 39 42 17
            43 32 34 15
            23 22 19 20
          </DataArray>
          <DataArray type="Int32" Name="offsets" format="ascii" RangeMin="4" RangeMax="160">
            4 8 12 16 20 24 
            28 32 36 40 44 48 
            52 56 60 64 68 72 
            76 80 84 88 92 96 
            100 104 108 112 116 120 
            124 128 132 136 140 144 
            148 152 156 160 
          </DataArray>
          <DataArray type="UInt8" Name="types" format="ascii" RangeMin="9" RangeMax="9">
            9 9 9 9 9 9 
            9 9 9 9 9 9 
            9 9 9 9 9 9 
            9 9 9 9 9 9 
            9 9 9 9 9 9 
            9 9 9 9 9 9 
            9 9 9 9 
          </DataArray>
        </Cells>
      </Piece>
    </UnstructuredGrid>
</VTKFile>
