<VTKFile type="UnstructuredGrid" version="0.1" byte_order="LittleEndian">
  <UnstructuredGrid>
    <Piece NumberOfPoints="496" NumberOfCells="360">
      <PointData Scalars="FFID">
        <DataArray type="Int32" Name="FFID" format="ascii">
          1
          2
          3
          4
          5
          6
          7
          8
          9
          10
          11
          12
          13
          14
          15
          16
          17
          18
          19
          20
          21
          22
          23
          24
          25
          26
          27
          28
          29
          30
          31
          32
          33
          34
          35
          36
          37
          38
          39
          40
          41
          42
          43
          44
          45
          46
          47
          48
          49
          50
          51
          52
          53
          54
          55
          56
          57
          58
          59
          60
          61
          62
          63
          64
          65
          66
          67
          68
          69
          70
          71
          72
          73
          74
          75
          76
          77
          78
          79
          80
          81
          82
          83
          84
          85
          86
          87
          88
          89
          90
          91
          92
          93
          94
          95
          96
          97
          98
          99
          100
          101
          102
          103
          104
          105
          106
          107
          108
          109
          110
          111
          112
          113
          114
          115
          116
          117
          118
          119
          120
          121
          122
          123
          124
          125
          126
          127
          128
          129
          130
          131
          132
          133
          134
          135
          136
          137
          138
          139
          140
          141
          142
          143
          144
          145
          146
          147
          148
          149
          150
          151
          152
          153
          154
          155
          156
          157
          158
          159
          160
          161
          162
          163
          164
          165
          166
          167
          168
          169
          170
          171
          172
          173
          174
          175
          176
          177
          178
          179
          180
          181
          182
          183
          184
          185
          186
          187
          188
          189
          190
          191
          192
          193
          194
          195
          196
          197
          198
          199
          200
          201
          202
          203
          204
          205
          206
          207
          208
          209
          210
          211
          212
          213
          214
          215
          216
          217
          218
          219
          220
          221
          222
          223
          224
          225
          226
          227
          228
          229
          230
          231
          232
          233
          234
          235
          236
          237
          238
          239
          240
          241
          242
          243
          244
          245
          246
          247
          248
          249
          250
          251
          252
          253
          254
          255
          256
          257
          258
          259
          260
          261
          262
          263
          264
          265
          266
          267
          268
          269
          270
          271
          272
          273
          274
          275
          276
          277
          278
          279
          280
          281
          282
          283
          284
          285
          286
          287
          288
          289
          290
          291
          292
          293
          294
          295
          296
          297
          298
          299
          300
          301
          302
          303
          304
          305
          306
          307
          308
          309
          310
          311
          312
          313
          314
          315
          316
          317
          318
          319
          320
          321
          322
          323
          324
          325
          326
          327
          328
          329
          330
          331
          332
          333
          334
          335
          336
          337
          338
          339
          340
          341
          342
          343
          344
          345
          346
          347
          348
          349
          350
          351
          352
          353
          354
          355
          356
          357
          358
          359
          360
          361
          362
          363
          364
          365
          366
          367
          368
          369
          370
          371
          372
          373
          374
          375
          376
          377
          378
          379
          380
          381
          382
          383
          384
          385
          386
          387
          388
          389
          390
          391
          392
          393
          394
          395
          396
          397
          398
          399
          400
          401
          402
          403
          404
          405
          406
          407
          408
          409
          410
          411
          412
          413
          414
          415
          416
          417
          418
          419
          420
          421
          422
          423
          424
          425
          426
          427
          428
          429
          430
          431
          432
          433
          434
          435
          436
          437
          438
          439
          440
          441
          442
          443
          444
          445
          446
          447
          448
          449
          450
          451
          452
          453
          454
          455
          456
          457
          458
          459
          460
          461
          462
          463
          464
          465
          466
          467
          468
          469
          470
          471
          472
          473
          474
          475
          476
          477
          478
          479
          480
          481
          482
          483
          484
          485
          486
          487
          488
          489
          490
          491
          492
          493
          494
          495
          496
        </DataArray>
      </PointData>
    <Points>
      <DataArray type="Float32" Name="Points" NumberOfComponents="3" format="ascii" RangeMin="0" RangeMax="1.0">
        -4.000000 0.000000 0.000000
        -2.000000 -3.464102 0.000000
        2.000000 -3.464102 -0.000000
        4.000000 -0.000000 -0.000000
        2.000000 3.464102 -0.000000
        -2.000000 3.464102 0.000000
        0.000000 -0.000000 -0.000000
        -3.324825 0.000000 0.000000
        2.794345 -0.000000 -0.000000
        -1.397173 -2.419974 0.000000
        1.662412 2.879383 -0.000000
        1.662412 -2.879383 -0.000000
        -1.397173 2.419974 0.000000
        -0.000000 -4.000000 0.000000
        -3.464102 -2.000000 0.000000
        -3.464102 2.000000 0.000000
        0.000000 4.000000 -0.000000
        3.464102 2.000000 -0.000000
        3.464102 -2.000000 -0.000000
        2.436873 1.652836 -0.000000
        0.974797 1.688397 -0.000000
        0.212961 2.936812 -0.000000
        -2.649835 1.283976 0.000000
        -0.669416 1.159463 0.000000
        -1.949593 0.000000 0.000000
        -2.649835 -1.283976 0.000000
        0.212961 -2.936812 -0.000000
        1.338832 -0.000000 -0.000000
        -0.669416 -1.159463 0.000000
        0.974797 -1.688397 -0.000000
        2.436873 -1.652836 -0.000000
        -4.000000 0.000000 1.333333
        -2.000000 -3.464102 1.333333
        2.000000 -3.464102 1.333333
        4.000000 -0.000000 1.333333
        2.000000 3.464102 1.333333
        -2.000000 3.464102 1.333333
        0.000000 -0.000000 1.333333
        -3.324825 0.000000 1.333333
        2.794345 -0.000000 1.333333
        -1.397173 -2.419974 1.333333
        1.662412 2.879383 1.333333
        1.662412 -2.879383 1.333333
        -1.397173 2.419974 1.333333
        -0.000000 -4.000000 1.333333
        -3.464102 -2.000000 1.333333
        -3.464102 2.000000 1.333333
        0.000000 4.000000 1.333333
        3.464102 2.000000 1.333333
        3.464102 -2.000000 1.333333
        2.436873 1.652836 1.333333
        0.974797 1.688397 1.333333
        0.212961 2.936812 1.333333
        -2.649835 1.283976 1.333333
        -0.669416 1.159463 1.333333
        -1.949593 0.000000 1.333333
        -2.649835 -1.283976 1.333333
        0.212961 -2.936812 1.333333
        1.338832 -0.000000 1.333333
        -0.669416 -1.159463 1.333333
        0.974797 -1.688397 1.333333
        2.436873 -1.652836 1.333333
        -4.000000 0.000000 2.666667
        -2.000000 -3.464102 2.666667
        2.000000 -3.464102 2.666667
        4.000000 -0.000000 2.666667
        2.000000 3.464102 2.666667
        -2.000000 3.464102 2.666667
        0.000000 -0.000000 2.666667
        -3.324825 0.000000 2.666667
        2.794345 -0.000000 2.666667
        -1.397173 -2.419974 2.666667
        1.662412 2.879383 2.666667
        1.662412 -2.879383 2.666667
        -1.397173 2.419974 2.666667
        0.000000 -4.000000 2.666667
        -3.464102 -2.000000 2.666667
        -3.464102 2.000000 2.666667
        0.000000 4.000000 2.666667
        3.464102 2.000000 2.666667
        3.464102 -2.000000 2.666667
        2.436873 1.652836 2.666667
        0.974797 1.688397 2.666667
        0.212961 2.936812 2.666667
        -2.649835 1.283976 2.666667
        -0.669416 1.159463 2.666667
        -1.949593 0.000000 2.666667
        -2.649835 -1.283976 2.666667
        0.212961 -2.936812 2.666667
        1.338832 -0.000000 2.666667
        -0.669416 -1.159463 2.666667
        0.974797 -1.688397 2.666667
        2.436873 -1.652836 2.666667
        -4.000000 0.000000 4.000000
        -2.000000 -3.464102 4.000000
        2.000000 -3.464102 4.000000
        4.000000 -0.000000 4.000000
        2.000000 3.464102 4.000000
        -2.000000 3.464102 4.000000
        0.000000 -0.000000 4.000000
        -3.324825 0.000000 4.000000
        2.794345 -0.000000 4.000000
        -1.397173 -2.419974 4.000000
        1.662412 2.879383 4.000000
        1.662412 -2.879383 4.000000
        -1.397173 2.419974 4.000000
        0.000000 -4.000000 4.000000
        -3.464102 -2.000000 4.000000
        -3.464102 2.000000 4.000000
        0.000000 4.000000 4.000000
        3.464102 2.000000 4.000000
        3.464102 -2.000000 4.000000
        2.436873 1.652836 4.000000
        0.974797 1.688397 4.000000
        0.212961 2.936812 4.000000
        -2.649835 1.283976 4.000000
        -0.669416 1.159463 4.000000
        -1.949593 0.000000 4.000000
        -2.649835 -1.283976 4.000000
        0.212961 -2.936812 4.000000
        1.338832 -0.000000 4.000000
        -0.669416 -1.159463 4.000000
        0.974797 -1.688397 4.000000
        2.436873 -1.652836 4.000000
        -4.000000 0.000000 5.333333
        -2.000000 -3.464102 5.333333
        2.000000 -3.464102 5.333333
        4.000000 -0.000000 5.333333
        2.000000 3.464102 5.333333
        -2.000000 3.464102 5.333333
        0.000000 -0.000000 5.333333
        -3.324825 0.000000 5.333333
        2.794345 -0.000000 5.333333
        -1.397173 -2.419974 5.333333
        1.662412 2.879383 5.333333
        1.662412 -2.879383 5.333333
        -1.397173 2.419974 5.333333
        0.000000 -4.000000 5.333333
        -3.464102 -2.000000 5.333333
        -3.464102 2.000000 5.333333
        0.000000 4.000000 5.333333
        3.464102 2.000000 5.333333
        3.464102 -2.000000 5.333333
        2.436873 1.652836 5.333333
        0.974797 1.688397 5.333333
        0.212961 2.936812 5.333333
        -2.649835 1.283976 5.333333
        -0.669416 1.159463 5.333333
        -1.949593 0.000000 5.333333
        -2.649835 -1.283976 5.333333
        0.212961 -2.936812 5.333333
        1.338832 -0.000000 5.333333
        -0.669416 -1.159463 5.333333
        0.974797 -1.688397 5.333333
        2.436873 -1.652836 5.333333
        -4.000000 0.000000 6.666667
        -2.000000 -3.464102 6.666667
        2.000000 -3.464102 6.666667
        4.000000 -0.000000 6.666667
        2.000000 3.464102 6.666667
        -2.000000 3.464102 6.666667
        0.000000 -0.000000 6.666667
        -3.324825 0.000000 6.666667
        2.794345 -0.000000 6.666667
        -1.397173 -2.419974 6.666667
        1.662412 2.879383 6.666667
        1.662412 -2.879383 6.666667
        -1.397173 2.419974 6.666667
        0.000000 -4.000000 6.666667
        -3.464102 -2.000000 6.666667
        -3.464102 2.000000 6.666667
        0.000000 4.000000 6.666667
        3.464102 2.000000 6.666667
        3.464102 -2.000000 6.666667
        2.436873 1.652836 6.666667
        0.974797 1.688397 6.666667
        0.212961 2.936812 6.666667
        -2.649835 1.283976 6.666667
        -0.669416 1.159463 6.666667
        -1.949593 0.000000 6.666667
        -2.649835 -1.283976 6.666667
        0.212961 -2.936812 6.666667
        1.338832 -0.000000 6.666667
        -0.669416 -1.159463 6.666667
        0.974797 -1.688397 6.666667
        2.436873 -1.652836 6.666667
        -4.000000 0.000000 8.000000
        -2.000000 -3.464102 8.000000
        2.000000 -3.464102 8.000000
        4.000000 -0.000000 8.000000
        2.000000 3.464102 8.000000
        -2.000000 3.464102 8.000000
        0.000000 -0.000000 8.000000
        -3.324825 0.000000 8.000000
        2.794345 -0.000000 8.000000
        -1.397173 -2.419974 8.000000
        1.662412 2.879383 8.000000
        1.662412 -2.879383 8.000000
        -1.397173 2.419974 8.000000
        0.000000 -4.000000 8.000000
        -3.464102 -2.000000 8.000000
        -3.464102 2.000000 8.000000
        0.000000 4.000000 8.000000
        3.464102 2.000000 8.000000
        3.464102 -2.000000 8.000000
        2.436873 1.652836 8.000000
        0.974797 1.688397 8.000000
        0.212961 2.936812 8.000000
        -2.649835 1.283976 8.000000
        -0.669416 1.159463 8.000000
        -1.949593 0.000000 8.000000
        -2.649835 -1.283976 8.000000
        0.212961 -2.936812 8.000000
        1.338832 -0.000000 8.000000
        -0.669416 -1.159463 8.000000
        0.974797 -1.688397 8.000000
        2.436873 -1.652836 8.000000
        -4.000000 0.000000 9.333333
        -2.000000 -3.464102 9.333333
        2.000000 -3.464102 9.333333
        4.000000 -0.000000 9.333333
        2.000000 3.464102 9.333333
        -2.000000 3.464102 9.333333
        0.000000 -0.000000 9.333333
        -3.324825 0.000000 9.333333
        2.794345 -0.000000 9.333333
        -1.397173 -2.419974 9.333333
        1.662412 2.879383 9.333333
        1.662412 -2.879383 9.333333
        -1.397173 2.419974 9.333333
        0.000000 -4.000000 9.333333
        -3.464102 -2.000000 9.333333
        -3.464102 2.000000 9.333333
        0.000000 4.000000 9.333333
        3.464102 2.000000 9.333333
        3.464102 -2.000000 9.333333
        2.436873 1.652836 9.333333
        0.974797 1.688397 9.333333
        0.212961 2.936812 9.333333
        -2.649835 1.283976 9.333333
        -0.669416 1.159463 9.333333
        -1.949593 0.000000 9.333333
        -2.649835 -1.283976 9.333333
        0.212961 -2.936812 9.333333
        1.338832 -0.000000 9.333333
        -0.669416 -1.159463 9.333333
        0.974797 -1.688397 9.333333
        2.436873 -1.652836 9.333333
        -4.000000 0.000000 10.666667
        -2.000000 -3.464102 10.666667
        2.000000 -3.464102 10.666667
        4.000000 -0.000000 10.666667
        2.000000 3.464102 10.666667
        -2.000000 3.464102 10.666667
        0.000000 -0.000000 10.666667
        -3.324825 0.000000 10.666667
        2.794345 -0.000000 10.666667
        -1.397173 -2.419974 10.666667
        1.662412 2.879383 10.666667
        1.662412 -2.879383 10.666667
        -1.397173 2.419974 10.666667
        0.000000 -4.000000 10.666667
        -3.464102 -2.000000 10.666667
        -3.464102 2.000000 10.666667
        0.000000 4.000000 10.666667
        3.464102 2.000000 10.666667
        3.464102 -2.000000 10.666667
        2.436873 1.652836 10.666667
        0.974797 1.688397 10.666667
        0.212961 2.936812 10.666667
        -2.649835 1.283976 10.666667
        -0.669416 1.159463 10.666667
        -1.949593 0.000000 10.666667
        -2.649835 -1.283976 10.666667
        0.212961 -2.936812 10.666667
        1.338832 -0.000000 10.666667
        -0.669416 -1.159463 10.666667
        0.974797 -1.688397 10.666667
        2.436873 -1.652836 10.666667
        -4.000000 0.000000 12.000000
        -2.000000 -3.464102 12.000000
        2.000000 -3.464102 12.000000
        4.000000 -0.000000 12.000000
        2.000000 3.464102 12.000000
        -2.000000 3.464102 12.000000
        0.000000 -0.000000 12.000000
        -3.324825 0.000000 12.000000
        2.794345 -0.000000 12.000000
        -1.397173 -2.419974 12.000000
        1.662412 2.879383 12.000000
        1.662412 -2.879383 12.000000
        -1.397173 2.419974 12.000000
        0.000000 -4.000000 12.000000
        -3.464102 -2.000000 12.000000
        -3.464102 2.000000 12.000000
        0.000000 4.000000 12.000000
        3.464102 2.000000 12.000000
        3.464102 -2.000000 12.000000
        2.436873 1.652836 12.000000
        0.974797 1.688397 12.000000
        0.212961 2.936812 12.000000
        -2.649835 1.283976 12.000000
        -0.669416 1.159463 12.000000
        -1.949593 0.000000 12.000000
        -2.649835 -1.283976 12.000000
        0.212961 -2.936812 12.000000
        1.338832 -0.000000 12.000000
        -0.669416 -1.159463 12.000000
        0.974797 -1.688397 12.000000
        2.436873 -1.652836 12.000000
        -4.000000 0.000000 13.333333
        -2.000000 -3.464102 13.333333
        2.000000 -3.464102 13.333333
        4.000000 -0.000000 13.333333
        2.000000 3.464102 13.333333
        -2.000000 3.464102 13.333333
        0.000000 -0.000000 13.333333
        -3.324825 0.000000 13.333333
        2.794345 -0.000000 13.333333
        -1.397173 -2.419974 13.333333
        1.662412 2.879383 13.333333
        1.662412 -2.879383 13.333333
        -1.397173 2.419974 13.333333
        0.000000 -4.000000 13.333333
        -3.464102 -2.000000 13.333333
        -3.464102 2.000000 13.333333
        0.000000 4.000000 13.333333
        3.464102 2.000000 13.333333
        3.464102 -2.000000 13.333333
        2.436873 1.652836 13.333333
        0.974797 1.688397 13.333333
        0.212961 2.936812 13.333333
        -2.649835 1.283976 13.333333
        -0.669416 1.159463 13.333333
        -1.949593 0.000000 13.333333
        -2.649835 -1.283976 13.333333
        0.212961 -2.936812 13.333333
        1.338832 -0.000000 13.333333
        -0.669416 -1.159463 13.333333
        0.974797 -1.688397 13.333333
        2.436873 -1.652836 13.333333
        -4.000000 0.000000 14.666667
        -2.000000 -3.464102 14.666667
        2.000000 -3.464102 14.666667
        4.000000 -0.000000 14.666667
        2.000000 3.464102 14.666667
        -2.000000 3.464102 14.666667
        0.000000 -0.000000 14.666667
        -3.324825 0.000000 14.666667
        2.794345 -0.000000 14.666667
        -1.397173 -2.419974 14.666667
        1.662412 2.879383 14.666667
        1.662412 -2.879383 14.666667
        -1.397173 2.419974 14.666667
        0.000000 -4.000000 14.666667
        -3.464102 -2.000000 14.666667
        -3.464102 2.000000 14.666667
        0.000000 4.000000 14.666667
        3.464102 2.000000 14.666667
        3.464102 -2.000000 14.666667
        2.436873 1.652836 14.666667
        0.974797 1.688397 14.666667
        0.212961 2.936812 14.666667
        -2.649835 1.283976 14.666667
        -0.669416 1.159463 14.666667
        -1.949593 0.000000 14.666667
        -2.649835 -1.283976 14.666667
        0.212961 -2.936812 14.666667
        1.338832 -0.000000 14.666667
        -0.669416 -1.159463 14.666667
        0.974797 -1.688397 14.666667
        2.436873 -1.652836 14.666667
        -4.000000 0.000000 16.000000
        -2.000000 -3.464102 16.000000
        2.000000 -3.464102 16.000000
        4.000000 -0.000000 16.000000
        2.000000 3.464102 16.000000
        -2.000000 3.464102 16.000000
        0.000000 -0.000000 16.000000
        -3.324825 0.000000 16.000000
        2.794345 -0.000000 16.000000
        -1.397173 -2.419974 16.000000
        1.662412 2.879383 16.000000
        1.662412 -2.879383 16.000000
        -1.397173 2.419974 16.000000
        0.000000 -4.000000 16.000000
        -3.464102 -2.000000 16.000000
        -3.464102 2.000000 16.000000
        0.000000 4.000000 16.000000
        3.464102 2.000000 16.000000
        3.464102 -2.000000 16.000000
        2.436873 1.652836 16.000000
        0.974797 1.688397 16.000000
        0.212961 2.936812 16.000000
        -2.649835 1.283976 16.000000
        -0.669416 1.159463 16.000000
        -1.949593 0.000000 16.000000
        -2.649835 -1.283976 16.000000
        0.212961 -2.936812 16.000000
        1.338832 -0.000000 16.000000
        -0.669416 -1.159463 16.000000
        0.974797 -1.688397 16.000000
        2.436873 -1.652836 16.000000
        -4.000000 0.000000 17.333333
        -2.000000 -3.464102 17.333333
        2.000000 -3.464102 17.333333
        4.000000 -0.000000 17.333333
        2.000000 3.464102 17.333333
        -2.000000 3.464102 17.333333
        0.000000 -0.000000 17.333333
        -3.324825 0.000000 17.333333
        2.794345 -0.000000 17.333333
        -1.397173 -2.419974 17.333333
        1.662412 2.879383 17.333333
        1.662412 -2.879383 17.333333
        -1.397173 2.419974 17.333333
        0.000000 -4.000000 17.333333
        -3.464102 -2.000000 17.333333
        -3.464102 2.000000 17.333333
        0.000000 4.000000 17.333333
        3.464102 2.000000 17.333333
        3.464102 -2.000000 17.333333
        2.436873 1.652836 17.333333
        0.974797 1.688397 17.333333
        0.212961 2.936812 17.333333
        -2.649835 1.283976 17.333333
        -0.669416 1.159463 17.333333
        -1.949593 0.000000 17.333333
        -2.649835 -1.283976 17.333333
        0.212961 -2.936812 17.333333
        1.338832 -0.000000 17.333333
        -0.669416 -1.159463 17.333333
        0.974797 -1.688397 17.333333
        2.436873 -1.652836 17.333333
        -4.000000 0.000000 18.666667
        -2.000000 -3.464102 18.666667
        2.000000 -3.464102 18.666667
        4.000000 -0.000000 18.666667
        2.000000 3.464102 18.666667
        -2.000000 3.464102 18.666667
        0.000000 -0.000000 18.666667
        -3.324825 0.000000 18.666667
        2.794345 -0.000000 18.666667
        -1.397173 -2.419974 18.666667
        1.662412 2.879383 18.666667
        1.662412 -2.879383 18.666667
        -1.397173 2.419974 18.666667
        0.000000 -4.000000 18.666667
        -3.464102 -2.000000 18.666667
        -3.464102 2.000000 18.666667
        0.000000 4.000000 18.666667
        3.464102 2.000000 18.666667
        3.464102 -2.000000 18.666667
        2.436873 1.652836 18.666667
        0.974797 1.688397 18.666667
        0.212961 2.936812 18.666667
        -2.649835 1.283976 18.666667
        -0.669416 1.159463 18.666667
        -1.949593 0.000000 18.666667
        -2.649835 -1.283976 18.666667
        0.212961 -2.936812 18.666667
        1.338832 -0.000000 18.666667
        -0.669416 -1.159463 18.666667
        0.974797 -1.688397 18.666667
        2.436873 -1.652836 18.666667
        -4.000000 0.000000 20.000000
        -2.000000 -3.464102 20.000000
        2.000000 -3.464102 20.000000
        4.000000 -0.000000 20.000000
        2.000000 3.464102 20.000000
        -2.000000 3.464102 20.000000
        0.000000 -4.000000 20.000000
        -3.464102 -2.000000 20.000000
        -3.464102 2.000000 20.000000
        0.000000 4.000000 20.000000
        3.464102 2.000000 20.000000
        3.464102 -2.000000 20.000000
        0.000000 -0.000000 20.000000
        -3.324825 0.000000 20.000000
        2.794345 -0.000000 20.000000
        -1.397173 -2.419974 20.000000
        1.662412 2.879383 20.000000
        1.662412 -2.879383 20.000000
        -1.397173 2.419974 20.000000
        2.436873 1.652836 20.000000
        0.974797 1.688397 20.000000
        0.212961 2.936812 20.000000
        -2.649835 1.283976 20.000000
        -0.669416 1.159463 20.000000
        -1.949593 0.000000 20.000000
        -2.649835 -1.283976 20.000000
        0.212961 -2.936812 20.000000
        1.338832 -0.000000 20.000000
        -0.669416 -1.159463 20.000000
        0.974797 -1.688397 20.000000
        2.436873 -1.652836 20.000000
      </DataArray>
    </Points>
      <Cells>
        <DataArray type="Int32" Name="connectivity" format="ascii" RangeMin="0" RangeMax="359">
          8 19 20 27 39 50 51 58
          19 10 21 20 50 41 52 51
          27 20 23 6 58 51 54 37
          20 21 12 23 51 52 43 54
          12 22 24 23 43 53 55 54
          22 7 25 24 53 38 56 55
          23 24 28 6 54 55 59 37
          24 25 9 28 55 56 40 59
          9 26 29 28 40 57 60 59
          26 11 30 29 57 42 61 60
          28 29 27 6 59 60 58 37
          29 30 8 27 60 61 39 58
          2 11 26 13 33 42 57 44
          13 26 9 1 44 57 40 32
          9 25 14 1 40 56 45 32
          14 25 7 0 45 56 38 31
          7 22 15 0 38 53 46 31
          22 12 5 15 53 43 36 46
          12 21 16 5 43 52 47 36
          10 4 16 21 41 35 47 52
          19 17 4 10 50 48 35 41
          8 3 17 19 39 34 48 50
          30 18 3 8 61 49 34 39
          2 18 30 11 33 49 61 42
          39 50 51 58 70 81 82 89
          50 41 52 51 81 72 83 82
          58 51 54 37 89 82 85 68
          51 52 43 54 82 83 74 85
          43 53 55 54 74 84 86 85
          53 38 56 55 84 69 87 86
          54 55 59 37 85 86 90 68
          55 56 40 59 86 87 71 90
          40 57 60 59 71 88 91 90
          57 42 61 60 88 73 92 91
          59 60 58 37 90 91 89 68
          60 61 39 58 91 92 70 89
          33 42 57 44 64 73 88 75
          44 57 40 32 75 88 71 63
          40 56 45 32 71 87 76 63
          45 56 38 31 76 87 69 62
          38 53 46 31 69 84 77 62
          53 43 36 46 84 74 67 77
          43 52 47 36 74 83 78 67
          41 35 47 52 72 66 78 83
          50 48 35 41 81 79 66 72
          39 34 48 50 70 65 79 81
          61 49 34 39 92 80 65 70
          33 49 61 42 64 80 92 73
          70 81 82 89 101 112 113 120
          81 72 83 82 112 103 114 113
          89 82 85 68 120 113 116 99
          82 83 74 85 113 114 105 116
          74 84 86 85 105 115 117 116
          84 69 87 86 115 100 118 117
          85 86 90 68 116 117 121 99
          86 87 71 90 117 118 102 121
          71 88 91 90 102 119 122 121
          88 73 92 91 119 104 123 122
          90 91 89 68 121 122 120 99
          91 92 70 89 122 123 101 120
          64 73 88 75 95 104 119 106
          75 88 71 63 106 119 102 94
          71 87 76 63 102 118 107 94
          76 87 69 62 107 118 100 93
          69 84 77 62 100 115 108 93
          84 74 67 77 115 105 98 108
          74 83 78 67 105 114 109 98
          72 66 78 83 103 97 109 114
          81 79 66 72 112 110 97 103
          70 65 79 81 101 96 110 112
          92 80 65 70 123 111 96 101
          64 80 92 73 95 111 123 104
          101 112 113 120 132 143 144 151
          112 103 114 113 143 134 145 144
          120 113 116 99 151 144 147 130
          113 114 105 116 144 145 136 147
          105 115 117 116 136 146 148 147
          115 100 118 117 146 131 149 148
          116 117 121 99 147 148 152 130
          117 118 102 121 148 149 133 152
          102 119 122 121 133 150 153 152
          119 104 123 122 150 135 154 153
          121 122 120 99 152 153 151 130
          122 123 101 120 153 154 132 151
          95 104 119 106 126 135 150 137
          106 119 102 94 137 150 133 125
          102 118 107 94 133 149 138 125
          107 118 100 93 138 149 131 124
          100 115 108 93 131 146 139 124
          115 105 98 108 146 136 129 139
          105 114 109 98 136 145 140 129
          103 97 109 114 134 128 140 145
          112 110 97 103 143 141 128 134
          101 96 110 112 132 127 141 143
          123 111 96 101 154 142 127 132
          95 111 123 104 126 142 154 135
          132 143 144 151 163 174 175 182
          143 134 145 144 174 165 176 175
          151 144 147 130 182 175 178 161
          144 145 136 147 175 176 167 178
          136 146 148 147 167 177 179 178
          146 131 149 148 177 162 180 179
          147 148 152 130 178 179 183 161
          148 149 133 152 179 180 164 183
          133 150 153 152 164 181 184 183
          150 135 154 153 181 166 185 184
          152 153 151 130 183 184 182 161
          153 154 132 151 184 185 163 182
          126 135 150 137 157 166 181 168
          137 150 133 125 168 181 164 156
          133 149 138 125 164 180 169 156
          138 149 131 124 169 180 162 155
          131 146 139 124 162 177 170 155
          146 136 129 139 177 167 160 170
          136 145 140 129 167 176 171 160
          134 128 140 145 165 159 171 176
          143 141 128 134 174 172 159 165
          132 127 141 143 163 158 172 174
          154 142 127 132 185 173 158 163
          126 142 154 135 157 173 185 166