<VTKFile type="UnstructuredGrid" version="0.1" byte_order="LittleEndian">
  <UnstructuredGrid>
    <Piece NumberOfPoints="31" NumberOfCells="24">
      <PointData Scalars="FFID">
        <DataArray type="Int32" Name="FFID" format="ascii">
          2
          3
          4
          5
          6
          7
          8
          9
          10
          11
          12
          13
          14
          15
          16
          17
          18
          19
          20
          21
          22
          23
          24
          25
          26
          27
          28
          29
          30
          31
          32
        </DataArray>
        </PointData>
      <Points>
        <DataArray type="Float32" Name="Points" NumberOfComponents="3" format="ascii" RangeMin="0" RangeMax="1.0">
          -4.000000 0.000000 0.000000
          -2.000000 -3.464102 0.000000
          2.000000 -3.464102 -0.000000
          4.000000 -0.000000 -0.000000
          2.000000 3.464102 -0.000000
          -2.000000 3.464102 0.000000
          0.000000 -0.000000 -0.000000
          -3.324825 0.000000 0.000000
          2.794345 -0.000000 -0.000000
          -1.397173 -2.419974 0.000000
          1.662412 2.879383 -0.000000
          1.662412 -2.879383 -0.000000
          -1.397173 2.419974 0.000000
          -0.000000 -4.000000 0.000000
          -3.464102 -2.000000 0.000000
          -3.464102 2.000000 0.000000
          0.000000 4.000000 -0.000000
          3.464102 2.000000 -0.000000
          3.464102 -2.000000 -0.000000
          2.436873 1.652836 -0.000000
          0.974797 1.688397 -0.000000
          0.212961 2.936812 -0.000000
          -2.649835 1.283976 0.000000
          -0.669416 1.159463 0.000000
          -1.949593 0.000000 0.000000
          -2.649835 -1.283976 0.000000
          0.212961 -2.936812 -0.000000
          1.338832 -0.000000 -0.000000
          -0.669416 -1.159463 0.000000
          0.974797 -1.688397 -0.000000
          2.436873 -1.652836 -0.000000
        </DataArray>
      </Points>
        <Cells>
          <DataArray type="Int32" Name="connectivity" format="ascii" RangeMin="0" RangeMax="495">
            8 19 20 27
            19 10 21 20
            27 20 23 6
            20 21 12 23
            12 22 24 23
            22 7 25 24
            23 24 28 6
            24 25 9 28
            9 26 29 28
            26 11 30 29
            28 29 27 6
            29 30 8 27
            2 11 26 13
            13 26 9 1
            9 25 14 1
            14 25 7 0
            7 22 15 0
            22 12 5 15
            12 21 16 5
            10 4 16 21
            19 17 4 10
            8 3 17 19
            30 18 3 8
            2 18 30 11
          </DataArray>
          <DataArray type="Int32" Name="offsets" format="ascii" RangeMin="4" RangeMax="96">
            4 8 12 16 20 24 
            28 32 36 40 44 48 
            52 56 60 64 68 72 
            76 80 84 88 92 96 
                      </DataArray>
          <DataArray type="UInt8" Name="types" format="ascii" RangeMin="9" RangeMax="9">
            9 9 9 9 9 9 
            9 9 9 9 9 9 
            9 9 9 9 9 9 
            9 9 9 9 9 9 
                      </DataArray>
        </Cells>
      </Piece>
    </UnstructuredGrid>
</VTKFile>
