<VTKFile type="UnstructuredGrid" version="0.1" byte_order="LittleEndian">
  <UnstructuredGrid>
    <Piece NumberOfPoints="31" NumberOfCells="24">
      <PointData Scalars="FFID">
        <DataArray type="Int32" Name="FFID" format="ascii">
          467
          468
          469
          470
          471
          472
          473
          474
          475
          476
          477
          478
          479
          480
          481
          482
          483
          484
          485
          486
          487
          488
          489
          490
          491
          492
          493
          494
          495
          496
          497
        </DataArray>
        </PointData>
      <Points>
        <DataArray type="Float32" Name="Points" NumberOfComponents="3" format="ascii" RangeMin="0" RangeMax="1.0">
          -4.000000 0.000000 20.000000
          -2.000000 -3.464102 20.000000
          2.000000 -3.464102 20.000000
          4.000000 -0.000000 20.000000
          2.000000 3.464102 20.000000
          -2.000000 3.464102 20.000000
          0.000000 -4.000000 20.000000
          -3.464102 -2.000000 20.000000
          -3.464102 2.000000 20.000000
          0.000000 4.000000 20.000000
          3.464102 2.000000 20.000000
          3.464102 -2.000000 20.000000
          0.000000 -0.000000 20.000000
          -3.324825 0.000000 20.000000
          2.794345 -0.000000 20.000000
          -1.397173 -2.419974 20.000000
          1.662412 2.879383 20.000000
          1.662412 -2.879383 20.000000
          -1.397173 2.419974 20.000000
          2.436873 1.652836 20.000000
          0.974797 1.688397 20.000000
          0.212961 2.936812 20.000000
          -2.649835 1.283976 20.000000
          -0.669416 1.159463 20.000000
          -1.949593 0.000000 20.000000
          -2.649835 -1.283976 20.000000
          0.212961 -2.936812 20.000000
          1.338832 -0.000000 20.000000
          -0.669416 -1.159463 20.000000
          0.974797 -1.688397 20.000000
          2.436873 -1.652836 20.000000
        </DataArray>
      </Points>
        <Cells>
          <DataArray type="Int32" Name="connectivity" format="ascii" RangeMin="0" RangeMax="495">
            14 27 20 19
            19 20 21 16
            27 12 23 20
            20 23 18 21
            18 23 24 22
            22 24 25 13
            23 12 28 24
            24 28 15 25
            15 28 29 26
            26 29 30 17
            28 12 27 29
            29 27 14 30
            2 6 26 17
            6 1 15 26
            15 1 7 25
            7 0 13 25
            13 0 8 22
            22 8 5 18
            18 5 9 21
            16 21 9 4
            19 16 4 10
            14 19 10 3
            30 14 3 11
            2 17 30 11
          </DataArray>
          <DataArray type="Int32" Name="offsets" format="ascii" RangeMin="4" RangeMax="96">
            4 8 12 16 20 24 
            28 32 36 40 44 48 
            52 56 60 64 68 72 
            76 80 84 88 92 96 
                      </DataArray>
          <DataArray type="UInt8" Name="types" format="ascii" RangeMin="9" RangeMax="9">
            9 9 9 9 9 9 
            9 9 9 9 9 9 
            9 9 9 9 9 9 
            9 9 9 9 9 9 
                      </DataArray>
        </Cells>
      </Piece>
    </UnstructuredGrid>
</VTKFile>
