<VTKFile type="UnstructuredGrid" version="0.1" byte_order="LittleEndian">
  <UnstructuredGrid>
    <Piece NumberOfPoints="192" NumberOfCells="180">
      <PointData Scalars="FFID">
        <DataArray type="Int32" Name="FFID" format="ascii">
          2
          3
          4
          5
          6
          7
          15
          16
          17
          18
          19
          20
          33
          34
          35
          36
          37
          38
          46
          47
          48
          49
          50
          51
          64
          65
          66
          67
          68
          69
          77
          78
          79
          80
          81
          82
          95
          96
          97
          98
          99
          100
          108
          109
          110
          111
          112
          113
          126
          127
          128
          129
          130
          131
          139
          140
          141
          142
          143
          144
          157
          158
          159
          160
          161
          162
          170
          171
          172
          173
          174
          175
          188
          189
          190
          191
          192
          193
          201
          202
          203
          204
          205
          206
          219
          220
          221
          222
          223
          224
          232
          233
          234
          235
          236
          237
          250
          251
          252
          253
          254
          255
          263
          264
          265
          266
          267
          268
          281
          282
          283
          284
          285
          286
          294
          295
          296
          297
          298
          299
          312
          313
          314
          315
          316
          317
          325
          326
          327
          328
          329
          330
          343
          344
          345
          346
          347
          348
          356
          357
          358
          359
          360
          361
          374
          375
          376
          377
          378
          379
          387
          388
          389
          390
          391
          392
          405
          406
          407
          408
          409
          410
          418
          419
          420
          421
          422
          423
          436
          437
          438
          439
          440
          441
          449
          450
          451
          452
          453
          454
          467
          468
          469
          470
          471
          472
          473
          474
          475
          476
          477
          478
        </DataArray>
        </PointData>
      <Points>
        <DataArray type="Float32" Name="Points" NumberOfComponents="3" format="ascii" RangeMin="0" RangeMax="1.0">
          -4.000000 0.000000 0.000000
          -2.000000 -3.464102 0.000000
          2.000000 -3.464102 -0.000000
          4.000000 -0.000000 -0.000000
          2.000000 3.464102 -0.000000
          -2.000000 3.464102 0.000000
          -0.000000 -4.000000 0.000000
          -3.464102 -2.000000 0.000000
          -3.464102 2.000000 0.000000
          0.000000 4.000000 -0.000000
          3.464102 2.000000 -0.000000
          3.464102 -2.000000 -0.000000
          -4.000000 0.000000 1.333333
          -2.000000 -3.464102 1.333333
          2.000000 -3.464102 1.333333
          4.000000 -0.000000 1.333333
          2.000000 3.464102 1.333333
          -2.000000 3.464102 1.333333
          -0.000000 -4.000000 1.333333
          -3.464102 -2.000000 1.333333
          -3.464102 2.000000 1.333333
          0.000000 4.000000 1.333333
          3.464102 2.000000 1.333333
          3.464102 -2.000000 1.333333
          -4.000000 0.000000 2.666667
          -2.000000 -3.464102 2.666667
          2.000000 -3.464102 2.666667
          4.000000 -0.000000 2.666667
          2.000000 3.464102 2.666667
          -2.000000 3.464102 2.666667
          0.000000 -4.000000 2.666667
          -3.464102 -2.000000 2.666667
          -3.464102 2.000000 2.666667
          0.000000 4.000000 2.666667
          3.464102 2.000000 2.666667
          3.464102 -2.000000 2.666667
          -4.000000 0.000000 4.000000
          -2.000000 -3.464102 4.000000
          2.000000 -3.464102 4.000000
          4.000000 -0.000000 4.000000
          2.000000 3.464102 4.000000
          -2.000000 3.464102 4.000000
          0.000000 -4.000000 4.000000
          -3.464102 -2.000000 4.000000
          -3.464102 2.000000 4.000000
          0.000000 4.000000 4.000000
          3.464102 2.000000 4.000000
          3.464102 -2.000000 4.000000
          -4.000000 0.000000 5.333333
          -2.000000 -3.464102 5.333333
          2.000000 -3.464102 5.333333
          4.000000 -0.000000 5.333333
          2.000000 3.464102 5.333333
          -2.000000 3.464102 5.333333
          0.000000 -4.000000 5.333333
          -3.464102 -2.000000 5.333333
          -3.464102 2.000000 5.333333
          0.000000 4.000000 5.333333
          3.464102 2.000000 5.333333
          3.464102 -2.000000 5.333333
          -4.000000 0.000000 6.666667
          -2.000000 -3.464102 6.666667
          2.000000 -3.464102 6.666667
          4.000000 -0.000000 6.666667
          2.000000 3.464102 6.666667
          -2.000000 3.464102 6.666667
          0.000000 -4.000000 6.666667
          -3.464102 -2.000000 6.666667
          -3.464102 2.000000 6.666667
          0.000000 4.000000 6.666667
          3.464102 2.000000 6.666667
          3.464102 -2.000000 6.666667
          -4.000000 0.000000 8.000000
          -2.000000 -3.464102 8.000000
          2.000000 -3.464102 8.000000
          4.000000 -0.000000 8.000000
          2.000000 3.464102 8.000000
          -2.000000 3.464102 8.000000
          0.000000 -4.000000 8.000000
          -3.464102 -2.000000 8.000000
          -3.464102 2.000000 8.000000
          0.000000 4.000000 8.000000
          3.464102 2.000000 8.000000
          3.464102 -2.000000 8.000000
          -4.000000 0.000000 9.333333
          -2.000000 -3.464102 9.333333
          2.000000 -3.464102 9.333333
          4.000000 -0.000000 9.333333
          2.000000 3.464102 9.333333
          -2.000000 3.464102 9.333333
          0.000000 -4.000000 9.333333
          -3.464102 -2.000000 9.333333
          -3.464102 2.000000 9.333333
          0.000000 4.000000 9.333333
          3.464102 2.000000 9.333333
          3.464102 -2.000000 9.333333
          -4.000000 0.000000 10.666667
          -2.000000 -3.464102 10.666667
          2.000000 -3.464102 10.666667
          4.000000 -0.000000 10.666667
          2.000000 3.464102 10.666667
          -2.000000 3.464102 10.666667
          0.000000 -4.000000 10.666667
          -3.464102 -2.000000 10.666667
          -3.464102 2.000000 10.666667
          0.000000 4.000000 10.666667
          3.464102 2.000000 10.666667
          3.464102 -2.000000 10.666667
          -4.000000 0.000000 12.000000
          -2.000000 -3.464102 12.000000
          2.000000 -3.464102 12.000000
          4.000000 -0.000000 12.000000
          2.000000 3.464102 12.000000
          -2.000000 3.464102 12.000000
          0.000000 -4.000000 12.000000
          -3.464102 -2.000000 12.000000
          -3.464102 2.000000 12.000000
          0.000000 4.000000 12.000000
          3.464102 2.000000 12.000000
          3.464102 -2.000000 12.000000
          -4.000000 0.000000 13.333333
          -2.000000 -3.464102 13.333333
          2.000000 -3.464102 13.333333
          4.000000 -0.000000 13.333333
          2.000000 3.464102 13.333333
          -2.000000 3.464102 13.333333
          0.000000 -4.000000 13.333333
          -3.464102 -2.000000 13.333333
          -3.464102 2.000000 13.333333
          0.000000 4.000000 13.333333
          3.464102 2.000000 13.333333
          3.464102 -2.000000 13.333333
          -4.000000 0.000000 14.666667
          -2.000000 -3.464102 14.666667
          2.000000 -3.464102 14.666667
          4.000000 -0.000000 14.666667
          2.000000 3.464102 14.666667
          -2.000000 3.464102 14.666667
          0.000000 -4.000000 14.666667
          -3.464102 -2.000000 14.666667
          -3.464102 2.000000 14.666667
          0.000000 4.000000 14.666667
          3.464102 2.000000 14.666667
          3.464102 -2.000000 14.666667
          -4.000000 0.000000 16.000000
          -2.000000 -3.464102 16.000000
          2.000000 -3.464102 16.000000
          4.000000 -0.000000 16.000000
          2.000000 3.464102 16.000000
          -2.000000 3.464102 16.000000
          0.000000 -4.000000 16.000000
          -3.464102 -2.000000 16.000000
          -3.464102 2.000000 16.000000
          0.000000 4.000000 16.000000
          3.464102 2.000000 16.000000
          3.464102 -2.000000 16.000000
          -4.000000 0.000000 17.333333
          -2.000000 -3.464102 17.333333
          2.000000 -3.464102 17.333333
          4.000000 -0.000000 17.333333
          2.000000 3.464102 17.333333
          -2.000000 3.464102 17.333333
          0.000000 -4.000000 17.333333
          -3.464102 -2.000000 17.333333
          -3.464102 2.000000 17.333333
          0.000000 4.000000 17.333333
          3.464102 2.000000 17.333333
          3.464102 -2.000000 17.333333
          -4.000000 0.000000 18.666667
          -2.000000 -3.464102 18.666667
          2.000000 -3.464102 18.666667
          4.000000 -0.000000 18.666667
          2.000000 3.464102 18.666667
          -2.000000 3.464102 18.666667
          0.000000 -4.000000 18.666667
          -3.464102 -2.000000 18.666667
          -3.464102 2.000000 18.666667
          0.000000 4.000000 18.666667
          3.464102 2.000000 18.666667
          3.464102 -2.000000 18.666667
          -4.000000 0.000000 20.000000
          -2.000000 -3.464102 20.000000
          2.000000 -3.464102 20.000000
          4.000000 -0.000000 20.000000
          2.000000 3.464102 20.000000
          -2.000000 3.464102 20.000000
          0.000000 -4.000000 20.000000
          -3.464102 -2.000000 20.000000
          -3.464102 2.000000 20.000000
          0.000000 4.000000 20.000000
          3.464102 2.000000 20.000000
          3.464102 -2.000000 20.000000
        </DataArray>
      </Points>
        <Cells>
          <DataArray type="Int32" Name="connectivity" format="ascii" RangeMin="0" RangeMax="495">
            2 6 18 14
            6 1 13 18
            7 19 13 1
            7 0 12 19
            8 20 12 0
            5 17 20 8
            9 21 17 5
            4 16 21 9
            10 22 16 4
            3 15 22 10
            11 23 15 3
            2 14 23 11
            14 18 30 26
            18 13 25 30
            19 31 25 13
            19 12 24 31
            20 32 24 12
            17 29 32 20
            21 33 29 17
            16 28 33 21
            22 34 28 16
            15 27 34 22
            23 35 27 15
            14 26 35 23
            26 30 42 38
            30 25 37 42
            31 43 37 25
            31 24 36 43
            32 44 36 24
            29 41 44 32
            33 45 41 29
            28 40 45 33
            34 46 40 28
            27 39 46 34
            35 47 39 27
            26 38 47 35
            38 42 54 50
            42 37 49 54
            43 55 49 37
            43 36 48 55
            44 56 48 36
            41 53 56 44
            45 57 53 41
            40 52 57 45
            46 58 52 40
            39 51 58 46
            47 59 51 39
            38 50 59 47
            50 54 66 62
            54 49 61 66
            55 67 61 49
            55 48 60 67
            56 68 60 48
            53 65 68 56
            57 69 65 53
            52 64 69 57
            58 70 64 52
            51 63 70 58
            59 71 63 51
            50 62 71 59
            62 66 78 74
            66 61 73 78
            67 79 73 61
            67 60 72 79
            68 80 72 60
            65 77 80 68
            69 81 77 65
            64 76 81 69
            70 82 76 64
            63 75 82 70
            71 83 75 63
            62 74 83 71
            74 78 90 86
            78 73 85 90
            79 91 85 73
            79 72 84 91
            80 92 84 72
            77 89 92 80
            81 93 89 77
            76 88 93 81
            82 94 88 76
            75 87 94 82
            83 95 87 75
            74 86 95 83
            86 90 102 98
            90 85 97 102
            91 103 97 85
            91 84 96 103
            92 104 96 84
            89 101 104 92
            93 105 101 89
            88 100 105 93
            94 106 100 88
            87 99 106 94
            95 107 99 87
            86 98 107 95
            98 102 114 110
            102 97 109 114
            103 115 109 97
            103 96 108 115
            104 116 108 96
            101 113 116 104
            105 117 113 101
            100 112 117 105
            106 118 112 100
            99 111 118 106
            107 119 111 99
            98 110 119 107
            110 114 126 122
            114 109 121 126
            115 127 121 109
            115 108 120 127
            116 128 120 108
            113 125 128 116
            117 129 125 113
            112 124 129 117
            118 130 124 112
            111 123 130 118
            119 131 123 111
            110 122 131 119
            122 126 138 134
            126 121 133 138
            127 139 133 121
            127 120 132 139
            128 140 132 120
            125 137 140 128
            129 141 137 125
            124 136 141 129
            130 142 136 124
            123 135 142 130
            131 143 135 123
            122 134 143 131
            134 138 150 146
            138 133 145 150
            139 151 145 133
            139 132 144 151
            140 152 144 132
            137 149 152 140
            141 153 149 137
            136 148 153 141
            142 154 148 136
            135 147 154 142
            143 155 147 135
            134 146 155 143
            146 150 162 158
            150 145 157 162
            151 163 157 145
            151 144 156 163
            152 164 156 144
            149 161 164 152
            153 165 161 149
            148 160 165 153
            154 166 160 148
            147 159 166 154
            155 167 159 147
            146 158 167 155
            158 162 174 170
            162 157 169 174
            163 175 169 157
            163 156 168 175
            164 176 168 156
            161 173 176 164
            165 177 173 161
            160 172 177 165
            166 178 172 160
            159 171 178 166
            167 179 171 159
            158 170 179 167
            170 174 186 182
            174 169 181 186
            175 187 181 169
            175 168 180 187
            176 188 180 168
            173 185 188 176
            177 189 185 173
            172 184 189 177
            178 190 184 172
            171 183 190 178
            179 191 183 171
            170 182 191 179
          </DataArray>
          <DataArray type="Int32" Name="offsets" format="ascii" RangeMin="4" RangeMax="720">
            4 8 12 16 20 24 
            28 32 36 40 44 48 
            52 56 60 64 68 72 
            76 80 84 88 92 96 
            100 104 108 112 116 120 
            124 128 132 136 140 144 
            148 152 156 160 164 168 
            172 176 180 184 188 192 
            196 200 204 208 212 216 
            220 224 228 232 236 240 
            244 248 252 256 260 264 
            268 272 276 280 284 288 
            292 296 300 304 308 312 
            316 320 324 328 332 336 
            340 344 348 352 356 360 
            364 368 372 376 380 384 
            388 392 396 400 404 408 
            412 416 420 424 428 432 
            436 440 444 448 452 456 
            460 464 468 472 476 480 
            484 488 492 496 500 504 
            508 512 516 520 524 528 
            532 536 540 544 548 552 
            556 560 564 568 572 576 
            580 584 588 592 596 600 
            604 608 612 616 620 624 
            628 632 636 640 644 648 
            652 656 660 664 668 672 
            676 680 684 688 692 696 
            700 704 708 712 716 720 
                      </DataArray>
          <DataArray type="UInt8" Name="types" format="ascii" RangeMin="9" RangeMax="9">
            9 9 9 9 9 9 
            9 9 9 9 9 9 
            9 9 9 9 9 9 
            9 9 9 9 9 9 
            9 9 9 9 9 9 
            9 9 9 9 9 9 
            9 9 9 9 9 9 
            9 9 9 9 9 9 
            9 9 9 9 9 9 
            9 9 9 9 9 9 
            9 9 9 9 9 9 
            9 9 9 9 9 9 
            9 9 9 9 9 9 
            9 9 9 9 9 9 
            9 9 9 9 9 9 
            9 9 9 9 9 9 
            9 9 9 9 9 9 
            9 9 9 9 9 9 
            9 9 9 9 9 9 
            9 9 9 9 9 9 
            9 9 9 9 9 9 
            9 9 9 9 9 9 
            9 9 9 9 9 9 
            9 9 9 9 9 9 
            9 9 9 9 9 9 
            9 9 9 9 9 9 
            9 9 9 9 9 9 
            9 9 9 9 9 9 
            9 9 9 9 9 9 
            9 9 9 9 9 9 
                      </DataArray>
        </Cells>
      </Piece>
    </UnstructuredGrid>
</VTKFile>
