<VTKFile type="UnstructuredGrid" version="0.1" byte_order="LittleEndian">
  <UnstructuredGrid>
    <Piece NumberOfPoints="406" NumberOfCells="336">
      <PointData Scalars="FFID">
        <DataArray type="Int32" Name="FFID" format="ascii">
          276
          277
          278
          279
          280
          281
          282
          283
          284
          285
          286
          287
          288
          289
          290
          291
          292
          293
          294
          295
          296
          333
          335
          357
          361
          386
          390
          407
          417
          431
          457
          491
          532
          554
          576
          587
          617
          620
          625
          635
          653
          692
          697
          716
          729
          762
          764
          765
          773
          798
          838
          839
          843
          877
          931
          937
          958
          972
          991
          1001
          1031
          1078
          1100
          1130
          1226
          1232
          1233
          1236
          1248
          1257
          1263
          1273
          1277
          1291
          1296
          1300
          1306
          1309
          1334
          1344
          1373
          1457
          1462
          1600
          1613
          1614
          1615
          1616
          1617
          1618
          1619
          1627
          1628
          1629
          1630
          1631
          1632
          1633
          1663
          1666
          1705
          1712
          1716
          1728
          1731
          1775
          1797
          1810
          1816
          1819
          1830
          1863
          1880
          1905
          1907
          1920
          1941
          1950
          1951
          1964
          1973
          1998
          2007
          2051
          2075
          2100
          2144
          2206
          2215
          2231
          2250
          2269
          2274
          2343
          2350
          2355
          2389
          2397
          2403
          2422
          2435
          2453
          2466
          2476
          2484
          2493
          2500
          2517
          2526
          2527
          2543
          2613
          2629
          2700
          2720
          2737
          2772
          2797
          2813
          2837
          2838
          2851
          2901
          2959
          2990
          2992
          3011
          3022
          3034
          3057
          3076
          3087
          3117
          3128
          3140
          3170
          3174
          3186
          3190
          3253
          3260
          3311
          3325
          3326
          3327
          3328
          3329
          3330
          3331
          3332
          3333
          3334
          3335
          3336
          3337
          3338
          3441
          3444
          3462
          3469
          3501
          3503
          3507
          3521
          3522
          3540
          3548
          3554
          3572
          3574
          3576
          3599
          3605
          3612
          3615
          3625
          3627
          3628
          3653
          3665
          3682
          3741
          3755
          3764
          3765
          3786
          3787
          3800
          3805
          3834
          3864
          3875
          3876
          3888
          3913
          3922
          3930
          3935
          3937
          3942
          3981
          4002
          4005
          4020
          4021
          4024
          4046
          4066
          4076
          4083
          4088
          4096
          4108
          4109
          4110
          4114
          4139
          4144
          4147
          4155
          4166
          4170
          4172
          4231
          4239
          4244
          4260
          4265
          4300
          4308
          4361
          4391
          4392
          4425
          4461
          4478
          4486
          4554
          4556
          4569
          4577
          4580
          4595
          4666
          4715
          4729
          4762
          4766
          4779
          4808
          4819
          4847
          4877
          4892
          4974
          4987
          4999
          5021
          5026
          5029
          5035
          5046
          5100
          5103
          5108
          5118
          5122
          5127
          5129
          5131
          5155
          5191
          5192
          5198
          5199
          5217
          5225
          5230
          5256
          5272
          5274
          5298
          5344
          5348
          5367
          5394
          5407
          5441
          5447
          5465
          5470
          5482
          5484
          5524
          5532
          5540
          5546
          5568
          5569
          5586
          5610
          5684
          5685
          5717
          5723
          5741
          5746
          5747
          5754
          5766
          5784
          5797
          5829
          5840
          5872
          5874
          5897
          5917
          5956
          5980
          6008
          6009
          6049
          6080
          6162
          6220
          6229
          6234
          6246
          6248
          6281
          6321
          6366
          6367
          6390
          6419
          6502
          6518
          6548
          6584
          6607
          6611
          6612
          6645
          6652
          6676
          6706
          6717
          6734
          6746
          6783
          6802
          6882
          6885
          6889
          6890
          6893
          6894
          6895
          6896
          6897
          6898
          6899
          6900
          6901
          6902
        </DataArray>
        </PointData>
      <Points>
        <DataArray type="Float32" Name="Points" NumberOfComponents="3" format="ascii" RangeMin="0" RangeMax="1.0">
          -15.000000 -31.500000 -9.990000
          -15.000000 -31.500000 -5.010000
          -15.000000 -27.000000 -9.990000
          -15.000000 -27.000000 -5.010000
          -15.000000 -22.500000 -9.990000
          -15.000000 -18.000000 -5.010000
          -15.000000 -18.000000 -9.990000
          -15.000000 -22.500000 -5.010000
          -15.000000 -9.000000 -5.010000
          -15.000000 -9.000000 -9.990000
          -15.000000 -13.500000 -9.990000
          -15.000000 -13.500000 -5.010000
          -15.000000 -31.500000 -15.000000
          -15.000000 -27.000000 -15.000000
          -15.000000 -18.000000 -15.000000
          -15.000000 -22.500000 -15.000000
          -15.000000 -9.000000 -15.000000
          -15.000000 -13.500000 -15.000000
          -15.000000 -4.500000 -15.000000
          -15.000000 -4.500000 -9.990000
          -15.000000 -4.500000 -5.010000
          15.000000 -13.500000 -9.990000
          15.000000 -18.000000 -5.010000
          15.000000 -31.500000 -15.000000
          15.000000 -9.000000 -15.000000
          15.000000 -18.000000 -9.990000
          15.000000 -4.500000 -15.000000
          15.000000 -27.000000 -15.000000
          15.000000 -22.500000 -15.000000
          15.000000 -31.500000 -5.010000
          15.000000 -13.500000 -15.000000
          15.000000 -22.500000 -5.010000
          15.000000 -27.000000 -5.010000
          15.000000 -18.000000 -15.000000
          15.000000 -4.500000 -5.010000
          15.000000 -27.000000 -9.990000
          15.000000 -4.500000 -9.990000
          15.000000 -9.000000 -9.990000
          15.000000 -31.500000 -9.990000
          15.000000 -13.500000 -5.010000
          15.000000 -22.500000 -9.990000
          15.000000 -9.000000 -5.010000
          15.000000 -4.500000 5.010000
          15.000000 -27.000000 9.990000
          15.000000 -31.500000 9.990000
          15.000000 -31.500000 15.000000
          15.000000 -9.000000 15.000000
          -15.000000 -27.000000 9.990000
          -15.000000 -27.000000 5.010000
          15.000000 -4.500000 9.990000
          -15.000000 -31.500000 9.990000
          15.000000 -18.000000 5.010000
          15.000000 -13.500000 9.990000
          15.000000 -13.500000 15.000000
          -15.000000 -13.500000 9.990000
          15.000000 -27.000000 5.010000
          15.000000 -31.500000 5.010000
          -15.000000 -13.500000 5.010000
          15.000000 -18.000000 15.000000
          -15.000000 -18.000000 5.010000
          -15.000000 -22.500000 5.010000
          -15.000000 -4.500000 15.000000
          15.000000 -9.000000 9.990000
          -15.000000 -22.500000 15.000000
          -15.000000 -13.500000 15.000000
          15.000000 -9.000000 5.010000
          15.000000 -13.500000 5.010000
          -15.000000 -18.000000 9.990000
          15.000000 -4.500000 15.000000
          -15.000000 -31.500000 15.000000
          15.000000 -27.000000 15.000000
          15.000000 -22.500000 15.000000
          -15.000000 -27.000000 15.000000
          -15.000000 -9.000000 5.010000
          15.000000 -22.500000 9.990000
          -15.000000 -22.500000 9.990000
          15.000000 -18.000000 9.990000
          -15.000000 -18.000000 15.000000
          -15.000000 -4.500000 9.990000
          -15.000000 -4.500000 5.010000
          -15.000000 -9.000000 15.000000
          15.000000 -22.500000 5.010000
          -15.000000 -9.000000 9.990000
          -15.000000 -31.500000 5.010000
          -15.000000 -4.500000 0.000000
          -15.000000 -9.000000 0.000000
          -15.000000 -31.500000 0.000000
          -15.000000 -27.000000 0.000000
          -15.000000 -22.500000 0.000000
          -15.000000 -13.500000 0.000000
          -15.000000 -18.000000 0.000000
          15.000000 -18.000000 0.000000
          15.000000 -9.000000 0.000000
          15.000000 -22.500000 0.000000
          15.000000 -31.500000 0.000000
          15.000000 -4.500000 0.000000
          15.000000 -13.500000 0.000000
          15.000000 -27.000000 0.000000
          -15.000000 13.500000 15.000000
          -15.000000 13.500000 9.990000
          -15.000000 13.500000 -5.010000
          -15.000000 13.500000 -15.000000
          15.000000 18.000000 -9.990000
          -15.000000 13.500000 -9.990000
          15.000000 27.000000 -15.000000
          -15.000000 18.000000 9.990000
          -15.000000 27.000000 -15.000000
          15.000000 9.000000 -0.000000
          15.000000 22.500000 -5.010000
          -15.000000 13.500000 5.010000
          -15.000000 4.500000 9.990000
          15.000000 4.500000 -15.000000
          15.000000 18.000000 -15.000000
          -15.000000 4.500000 -9.990000
          -15.000000 18.000000 -15.000000
          15.000000 13.500000 -9.990000
          -15.000000 22.500000 15.000000
          15.000000 13.500000 5.010000
          15.000000 13.500000 -5.010000
          -15.000000 9.000000 -9.990000
          15.000000 27.000000 5.010000
          -15.000000 9.000000 15.000000
          -15.000000 4.500000 5.010000
          15.000000 27.000000 15.000000
          15.000000 4.500000 9.990000
          -15.000000 18.000000 5.010000
          15.000000 18.000000 9.990000
          15.000000 9.000000 15.000000
          -15.000000 27.000000 -0.000000
          -15.000000 27.000000 5.010000
          -15.000000 13.500000 -0.000000
          -15.000000 22.500000 -15.000000
          15.000000 18.000000 -5.010000
          15.000000 4.500000 -0.000000
          -15.000000 22.500000 -0.000000
          15.000000 9.000000 9.990000
          -15.000000 9.000000 -5.010000
          15.000000 27.000000 9.990000
          -15.000000 27.000000 15.000000
          15.000000 9.000000 -15.000000
          -15.000000 4.500000 -15.000000
          -15.000000 18.000000 -9.990000
          15.000000 4.500000 -9.990000
          15.000000 13.500000 -0.000000
          -15.000000 9.000000 -0.000000
          -15.000000 9.000000 -15.000000
          15.000000 22.500000 5.010000
          15.000000 4.500000 15.000000
          15.000000 22.500000 15.000000
          15.000000 4.500000 5.010000
          15.000000 18.000000 -0.000000
          -15.000000 27.000000 9.990000
          15.000000 27.000000 -0.000000
          15.000000 13.500000 15.000000
          15.000000 9.000000 5.010000
          15.000000 9.000000 -5.010000
          15.000000 22.500000 -9.990000
          -15.000000 18.000000 -5.010000
          -15.000000 9.000000 9.990000
          15.000000 22.500000 -0.000000
          -15.000000 4.500000 -5.010000
          -15.000000 22.500000 5.010000
          -15.000000 18.000000 15.000000
          15.000000 22.500000 -15.000000
          15.000000 13.500000 9.990000
          15.000000 18.000000 5.010000
          -15.000000 22.500000 9.990000
          15.000000 9.000000 -9.990000
          15.000000 27.000000 -5.010000
          -15.000000 4.500000 -0.000000
          15.000000 27.000000 -9.990000
          -15.000000 22.500000 -9.990000
          15.000000 4.500000 -5.010000
          -15.000000 27.000000 -5.010000
          15.000000 18.000000 15.000000
          -15.000000 4.500000 15.000000
          -15.000000 18.000000 -0.000000
          15.000000 13.500000 -15.000000
          -15.000000 9.000000 5.010000
          -15.000000 27.000000 -9.990000
          -15.000000 22.500000 -5.010000
          15.000000 22.500000 9.990000
          15.000000 0.000000 0.000000
          15.000000 -0.000000 -15.000000
          15.000000 0.000000 15.000000
          15.000000 -0.000000 -9.990000
          15.000000 0.000000 9.990000
          15.000000 -0.000000 -5.010000
          15.000000 0.000000 5.010000
          -15.000000 -0.000000 -9.990000
          -15.000000 -0.000000 -15.000000
          -15.000000 0.000000 9.990000
          -15.000000 0.000000 5.010000
          -15.000000 0.000000 0.000000
          -15.000000 0.000000 15.000000
          -15.000000 -0.000000 -5.010000
          -15.000000 54.000000 0.000000
          15.000000 58.500000 0.000000
          -15.000000 94.500000 9.990000
          -15.000000 54.000000 -9.990000
          -15.000000 40.500000 9.990000
          15.000000 45.000000 0.000000
          -15.000000 90.000000 9.990000
          -15.000000 45.000000 5.010000
          -15.000000 45.000000 0.000000
          -15.000000 58.500000 0.000000
          15.000000 45.000000 5.010000
          15.000000 85.500000 -9.990000
          15.000000 90.000000 5.010000
          -15.000000 85.500000 -15.000000
          -15.000000 72.000000 5.010000
          -15.000000 45.000000 9.990000
          -15.000000 40.500000 -15.000000
          -15.000000 45.000000 15.000000
          15.000000 49.500000 9.990000
          -15.000000 67.500000 -15.000000
          -15.000000 49.500000 5.010000
          15.000000 94.500000 5.010000
          15.000000 45.000000 -15.000000
          -15.000000 85.500000 9.990000
          -15.000000 63.000000 9.990000
          15.000000 85.500000 15.000000
          -15.000000 63.000000 -15.000000
          15.000000 36.000000 -5.010000
          15.000000 40.500000 -9.990000
          15.000000 54.000000 0.000000
          -15.000000 49.500000 9.990000
          -15.000000 54.000000 -15.000000
          -15.000000 67.500000 -5.010000
          -15.000000 94.500000 15.000000
          -15.000000 81.000000 -15.000000
          15.000000 90.000000 9.990000
          15.000000 36.000000 0.000000
          -15.000000 63.000000 0.000000
          15.000000 76.500000 -0.000000
          15.000000 81.000000 -9.990000
          15.000000 81.000000 5.010000
          15.000000 90.000000 15.000000
          15.000000 90.000000 -0.000000
          15.000000 72.000000 -0.000000
          -15.000000 67.500000 -0.000000
          -15.000000 45.000000 -5.010000
          15.000000 63.000000 -9.990000
          -15.000000 54.000000 -5.010000
          -15.000000 72.000000 -0.000000
          -15.000000 63.000000 -5.010000
          -15.000000 49.500000 -15.000000
          -15.000000 90.000000 15.000000
          15.000000 58.500000 -9.990000
          15.000000 58.500000 15.000000
          15.000000 40.500000 9.990000
          15.000000 81.000000 -15.000000
          15.000000 76.500000 9.990000
          15.000000 72.000000 9.990000
          -15.000000 76.500000 -5.010000
          15.000000 49.500000 -15.000000
          15.000000 76.500000 -5.010000
          -15.000000 49.500000 -9.990000
          15.000000 63.000000 5.010000
          15.000000 85.500000 -15.000000
          15.000000 72.000000 -5.010000
          15.000000 90.000000 -9.990000
          -15.000000 36.000000 -15.000000
          15.000000 85.500000 -5.010000
          -15.000000 45.000000 -15.000000
          -15.000000 49.500000 15.000000
          -15.000000 90.000000 -9.990000
          -15.000000 76.500000 15.000000
          15.000000 81.000000 9.990000
          15.000000 67.500000 5.010000
          15.000000 67.500000 -5.010000
          -15.000000 94.500000 -5.010000
          15.000000 72.000000 15.000000
          15.000000 94.500000 -5.010000
          15.000000 94.500000 -9.990000
          -15.000000 94.500000 -9.990000
          -15.000000 76.500000 5.010000
          -15.000000 63.000000 5.010000
          15.000000 90.000000 -5.010000
          -15.000000 58.500000 9.990000
          15.000000 94.500000 9.990000
          15.000000 36.000000 9.990000
          -15.000000 85.500000 -9.990000
          -15.000000 40.500000 -5.010000
          15.000000 67.500000 15.000000
          -15.000000 76.500000 -9.990000
          -15.000000 45.000000 -9.990000
          -15.000000 72.000000 -9.990000
          -15.000000 90.000000 -0.000000
          15.000000 72.000000 5.010000
          15.000000 49.500000 15.000000
          15.000000 54.000000 -15.000000
          15.000000 45.000000 15.000000
          15.000000 94.500000 -0.000000
          -15.000000 81.000000 -5.010000
          -15.000000 94.500000 5.010000
          15.000000 54.000000 -9.990000
          -15.000000 67.500000 15.000000
          15.000000 85.500000 -0.000000
          -15.000000 40.500000 -9.990000
          -15.000000 63.000000 15.000000
          -15.000000 90.000000 -15.000000
          15.000000 54.000000 15.000000
          15.000000 58.500000 9.990000
          -15.000000 85.500000 -5.010000
          15.000000 94.500000 -15.000000
          15.000000 36.000000 5.010000
          15.000000 63.000000 0.000000
          15.000000 81.000000 -5.010000
          -15.000000 94.500000 -15.000000
          15.000000 36.000000 -9.990000
          15.000000 67.500000 -0.000000
          -15.000000 36.000000 9.990000
          -15.000000 40.500000 15.000000
          15.000000 94.500000 15.000000
          -15.000000 90.000000 -5.010000
          15.000000 63.000000 -5.010000
          15.000000 40.500000 15.000000
          15.000000 45.000000 -5.010000
          -15.000000 49.500000 -5.010000
          15.000000 63.000000 -15.000000
          -15.000000 36.000000 0.000000
          -15.000000 54.000000 9.990000
          15.000000 36.000000 15.000000
          -15.000000 49.500000 0.000000
          -15.000000 94.500000 -0.000000
          -15.000000 76.500000 9.990000
          15.000000 81.000000 -0.000000
          15.000000 36.000000 -15.000000
          15.000000 49.500000 -9.990000
          -15.000000 85.500000 5.010000
          -15.000000 36.000000 -9.990000
          15.000000 40.500000 -5.010000
          15.000000 40.500000 0.000000
          15.000000 63.000000 9.990000
          -15.000000 76.500000 -15.000000
          -15.000000 58.500000 5.010000
          15.000000 76.500000 15.000000
          15.000000 54.000000 -5.010000
          -15.000000 72.000000 9.990000
          -15.000000 67.500000 9.990000
          15.000000 81.000000 15.000000
          15.000000 63.000000 15.000000
          15.000000 49.500000 5.010000
          15.000000 49.500000 0.000000
          -15.000000 81.000000 15.000000
          15.000000 58.500000 -5.010000
          -15.000000 58.500000 -9.990000
          -15.000000 63.000000 -9.990000
          -15.000000 67.500000 -9.990000
          -15.000000 36.000000 -5.010000
          -15.000000 40.500000 5.010000
          15.000000 54.000000 9.990000
          -15.000000 90.000000 5.010000
          -15.000000 58.500000 -5.010000
          15.000000 45.000000 -9.990000
          -15.000000 58.500000 15.000000
          15.000000 76.500000 -9.990000
          15.000000 85.500000 9.990000
          15.000000 72.000000 -9.990000
          -15.000000 76.500000 -0.000000
          15.000000 72.000000 -15.000000
          15.000000 67.500000 9.990000
          15.000000 40.500000 -15.000000
          -15.000000 85.500000 15.000000
          -15.000000 67.500000 5.010000
          15.000000 54.000000 5.010000
          -15.000000 36.000000 15.000000
          15.000000 67.500000 -9.990000
          -15.000000 58.500000 -15.000000
          15.000000 76.500000 5.010000
          -15.000000 72.000000 -5.010000
          15.000000 76.500000 -15.000000
          -15.000000 54.000000 5.010000
          -15.000000 36.000000 5.010000
          -15.000000 54.000000 15.000000
          15.000000 49.500000 -5.010000
          15.000000 40.500000 5.010000
          -15.000000 72.000000 -15.000000
          -15.000000 81.000000 -9.990000
          -15.000000 81.000000 -0.000000
          15.000000 85.500000 5.010000
          15.000000 58.500000 5.010000
          15.000000 58.500000 -15.000000
          15.000000 90.000000 -15.000000
          -15.000000 81.000000 9.990000
          -15.000000 85.500000 -0.000000
          15.000000 45.000000 9.990000
          15.000000 67.500000 -15.000000
          -15.000000 72.000000 15.000000
          -15.000000 40.500000 0.000000
          -15.000000 81.000000 5.010000
          15.000000 31.500000 15.000000
          -15.000000 31.500000 15.000000
          15.000000 31.500000 -15.000000
          -15.000000 31.500000 -15.000000
          15.000000 31.500000 -5.010000
          15.000000 31.500000 -9.990000
          15.000000 31.500000 9.990000
          15.000000 31.500000 0.000000
          15.000000 31.500000 5.010000
          -15.000000 31.500000 -9.990000
          -15.000000 31.500000 0.000000
          -15.000000 31.500000 -5.010000
          -15.000000 31.500000 9.990000
          -15.000000 31.500000 5.010000
        </DataArray>
      </Points>
        <Cells>
          <DataArray type="Int32" Name="connectivity" format="ascii" RangeMin="0" RangeMax="6900">
            19 20 195 189
            20 8 9 19
            193 84 20 195
            193 169 160 195
            189 190 18 19
            19 9 16 18
            189 113 140 190
            84 85 8 20
            193 192 79 84
            189 195 160 113
            192 122 169 193
            84 79 73 85
            85 89 11 8
            85 73 57 89
            8 11 10 9
            9 10 17 16
            89 90 5 11
            11 5 6 10
            10 6 14 17
            89 57 59 90
            90 88 7 5
            90 59 60 88
            6 5 7 4
            6 4 15 14
            88 87 3 7
            7 3 2 4
            88 60 48 87
            4 2 13 15
            87 86 1 3
            3 1 0 2
            2 0 12 13
            87 48 83 86
            41 39 21 37
            21 25 22 39
            29 94 97 32
            32 31 93 97
            29 38 35 32
            94 56 55 97
            32 35 40 31
            97 55 81 93
            31 22 91 93
            31 40 25 22
            93 81 51 91
            25 40 28 33
            37 36 34 41
            92 41 39 96
            21 30 24 37
            40 35 27 28
            185 187 34 36
            185 36 26 183
            22 39 96 91
            91 51 66 96
            96 66 65 92
            34 41 92 95
            34 187 182 95
            92 65 42 95
            33 30 21 25
            24 26 36 37
            185 142 172 187
            95 42 188 182
            187 172 133 182
            188 182 133 149
            27 35 38 23
            183 111 142 185
            56 44 43 55
            82 78 79 73
            82 54 57 73
            54 67 59 57
            47 48 83 50
            50 47 72 69
            51 81 74 76
            51 66 52 76
            81 55 43 74
            74 71 58 76
            52 62 65 66
            52 53 46 62
            43 70 71 74
            188 42 49 186
            188 149 124 186
            42 65 62 49
            186 49 68 184
            54 64 77 67
            75 67 77 63
            64 80 82 54
            80 61 78 82
            72 63 75 47
            47 75 60 48
            61 194 191 78
            78 191 192 79
            52 76 58 53
            62 49 68 46
            59 67 75 60
            191 110 122 192
            194 175 110 191
            43 44 45 70
            186 124 147 184
            108 132 150 159
            108 168 152 159
            120 146 181 137
            120 400 398 137
            146 165 150 159
            159 152 120 146
            149 154 135 124
            124 135 127 147
            133 107 154 149
            136 160 113 119
            136 100 103 119
            129 161 134 128
            129 405 402 128
            405 404 151 129
            403 402 128 173
            176 130 100 157
            176 134 180 157
            176 125 109 130
            134 161 125 176
            157 141 103 100
            157 180 171 141
            130 144 136 100
            109 178 144 130
            165 126 181 146
            165 117 143 150
            103 119 145 101
            103 141 114 101
            119 113 140 145
            129 151 166 161
            128 173 180 134
            166 105 125 161
            169 160 136 144
            180 173 179 171
            171 131 114 141
            171 179 106 131
            117 165 126 164
            117 154 135 164
            154 107 143 117
            164 135 127 153
            126 164 153 174
            104 170 156 163
            104 394 397 170
            163 112 102 156
            156 108 168 170
            137 398 392 123
            137 181 148 123
            181 126 174 148
            151 138 116 166
            152 399 400 120
            399 396 168 152
            102 156 108 132
            102 115 118 132
            155 118 143 107
            155 172 133 107
            138 393 404 151
            179 173 403 401
            106 179 401 395
            170 168 396 397
            118 143 150 132
            105 99 109 125
            122 178 144 169
            115 177 112 102
            115 167 155 118
            167 139 177 115
            142 167 155 172
            99 158 178 109
            158 110 122 178
            99 98 121 158
            166 116 162 105
            111 139 167 142
            175 110 158 121
            98 99 105 162
            285 287 378 335
            285 379 230 335
            331 350 283 299
            299 212 262 331
            234 327 236 370
            234 239 289 370
            273 278 238 293
            334 258 269 362
            334 303 382 258
            255 329 296 291
            374 351 390 321
            351 203 204 390
            396 399 232 223
            396 397 310 223
            281 323 317 250
            281 306 377 250
            268 341 337 252
            252 337 272 253
            237 231 280 314
            298 327 236 381
            298 238 208 381
            232 306 377 333
            232 223 332 333
            229 198 202 247
            267 389 339 326
            267 345 385 326
            299 286 264 212
            254 285 287 371
            254 360 244 371
            312 200 351 374
            312 404 405 374
            288 386 330 353
            386 380 391 330
            353 202 219 330
            268 252 370 236
            263 207 261 278
            263 207 235 308
            278 263 298 238
            263 308 327 298
            394 397 310 328
            376 344 201 318
            376 338 225 344
            388 368 359 361
            293 238 208 217
            398 392 323 281
            398 400 306 281
            389 339 340 297
            241 283 299 286
            241 319 257 286
            308 256 357 235
            308 256 234 327
            369 347 348 222
            348 349 215 222
            197 307 258 382
            197 225 366 382
            366 352 303 382
            203 211 200 351
            364 345 385 219
            364 247 202 219
            217 280 231 208
            348 245 354 347
            326 385 391 276
            326 339 210 276
            297 300 220 340
            208 381 358 231
            381 236 268 358
            399 232 306 400
            310 224 332 223
            199 243 319 257
            199 227 246 257
            199 347 369 227
            243 354 347 199
            336 373 196 205
            336 277 233 205
            336 279 322 373
            279 220 277 336
            274 261 278 273
            282 304 294 379
            282 209 230 379
            226 322 373 216
            226 211 203 216
            350 403 401 331
            340 339 210 365
            324 216 203 204
            324 319 241 204
            196 373 216 324
            196 243 319 324
            237 231 358 221
            277 233 240 365
            380 360 276 391
            315 288 386 304
            315 266 282 304
            304 386 380 294
            334 342 284 362
            282 266 301 209