<VTKFile type="UnstructuredGrid" version="0.1" byte_order="LittleEndian">
  <UnstructuredGrid>
    <Piece NumberOfPoints="194" NumberOfCells="168">
      <PointData Scalars="FFID">
        <DataArray type="Int32" Name="FFID" format="ascii">
          262
          263
          276
          277
          288
          297
          337
          357
          431
          530
          613
          625
          717
          729
          762
          838
          958
          1058
          1070
          1257
          1262
          1294
          1301
          1600
          1612
          1615
          1622
          1630
          1634
          1635
          1636
          1637
          3339
          3340
          3341
          3342
          3343
          3344
          3345
          3346
          3347
          3348
          3349
          3350
          3351
          3352
          3353
          3354
          3355
          3356
          3357
          3358
          3359
          3360
          3361
          3362
          3363
          3364
          3365
          3366
          3367
          3368
          3369
          3370
          3371
          3372
          3373
          3374
          3375
          3376
          3377
          3378
          3379
          3380
          3381
          3382
          3383
          3384
          3385
          3386
          3387
          3388
          3389
          3390
          3391
          3392
          3393
          3394
          3395
          3396
          3397
          3398
          3399
          3400
          3401
          3402
          3403
          3413
          3453
          3457
          3462
          3568
          3626
          3628
          3650
          3667
          3701
          3723
          3734
          3736
          3781
          3815
          3834
          3887
          3948
          3993
          4012
          4061
          4082
          4101
          4146
          4154
          4177
          4205
          4255
          4318
          4391
          4425
          4427
          4430
          4456
          4461
          4478
          4545
          4577
          4579
          4603
          4622
          4629
          4663
          4687
          4725
          4771
          4840
          4873
          4892
          4914
          4917
          4923
          4946
          4960
          4986
          4987
          5028
          5067
          5079
          5082
          5090
          5118
          5123
          5131
          5164
          5199
          5243
          5394
          5472
          5528
          5700
          5712
          5732
          5748
          5768
          5802
          5804
          5846
          5847
          5856
          5861
          5952
          6094
          6115
          6128
          6199
          6249
          6353
          6363
          6386
          6433
          6481
          6524
          6658
          6678
          6682
          6739
        </DataArray>
        </PointData>
      <Points>
        <DataArray type="Float32" Name="Points" NumberOfComponents="3" format="ascii" RangeMin="0" RangeMax="1.0">
          -5.010000 -31.500000 -15.000000
          -9.990000 -31.500000 -15.000000
          -15.000000 -31.500000 -9.990000
          -15.000000 -31.500000 -5.010000
          -15.000000 -31.500000 -15.000000
          -1.060660 -31.500000 -1.060358
          9.990000 -31.500000 -15.000000
          15.000000 -31.500000 -15.000000
          15.000000 -31.500000 -5.010000
          5.010000 -31.500000 -15.000000
          1.060358 -31.500000 -1.060660
          15.000000 -31.500000 -9.990000
          -5.010000 -31.500000 15.000000
          15.000000 -31.500000 9.990000
          15.000000 -31.500000 15.000000
          -15.000000 -31.500000 9.990000
          15.000000 -31.500000 5.010000
          1.060660 -31.500000 1.060358
          9.990000 -31.500000 15.000000
          -15.000000 -31.500000 15.000000
          -9.990000 -31.500000 15.000000
          5.010000 -31.500000 15.000000
          -1.060358 -31.500000 1.060660
          -15.000000 -31.500000 5.010000
          0.000000 -31.500000 -15.000000
          -15.000000 -31.500000 0.000000
          0.000000 -31.500000 15.000000
          15.000000 -31.500000 0.000000
          0.000000 -31.500000 1.500049
          1.500049 -31.500000 0.000000
          0.000000 -31.500000 -1.500049
          -1.500049 -31.500000 0.000000
          -2.627363 -31.500000 -2.626052
          -10.529195 -31.500000 -4.606523
          -1.589555 -31.500000 -2.780332
          -2.782688 -31.500000 -6.360429
          -1.912500 -31.500000 -4.371429
          -5.737500 -31.500000 -5.737500
          -4.606523 -31.500000 -10.529195
          -6.360429 -31.500000 -2.782688
          -3.825000 -31.500000 -3.825000
          -2.781125 -31.500000 -1.588761
          -4.371429 -31.500000 -1.912500
          -10.401794 -31.500000 -10.401794
          4.606523 -31.500000 -10.529195
          10.529195 -31.500000 -4.606523
          0.000000 -31.500000 -4.644643
          0.000000 -31.500000 -10.415348
          10.401794 -31.500000 -10.401794
          2.626052 -31.500000 -2.627363
          3.825000 -31.500000 -3.825000
          4.371429 -31.500000 -1.912500
          1.588761 -31.500000 -2.781125
          6.360429 -31.500000 -2.782688
          0.000000 -31.500000 -3.119748
          1.912500 -31.500000 -4.371429
          2.780332 -31.500000 -1.589555
          0.000000 -31.500000 -6.622796
          5.737500 -31.500000 -5.737500
          2.782688 -31.500000 -6.360429
          -10.415348 -31.500000 0.000000
          10.529195 -31.500000 4.606523
          4.606523 -31.500000 10.529195
          -5.737500 -31.500000 5.737500
          -1.912500 -31.500000 4.371429
          0.000000 -31.500000 10.415348
          -2.780332 -31.500000 1.589555
          -2.626052 -31.500000 2.627363
          10.401794 -31.500000 10.401794
          2.627363 -31.500000 2.626052
          0.000000 -31.500000 0.000000
          3.825000 -31.500000 3.825000
          -4.371429 -31.500000 1.912500
          -4.606523 -31.500000 10.529195
          -1.588761 -31.500000 2.781125
          3.119748 -31.500000 0.000000
          -3.825000 -31.500000 3.825000
          6.622796 -31.500000 0.000000
          -10.529195 -31.500000 4.606523
          -6.360429 -31.500000 2.782688
          6.360429 -31.500000 2.782688
          -4.644643 -31.500000 0.000000
          0.000000 -31.500000 4.644643
          4.644643 -31.500000 0.000000
          10.415348 -31.500000 0.000000
          0.000000 -31.500000 3.119748
          1.912500 -31.500000 4.371429
          -3.119748 -31.500000 0.000000
          2.781125 -31.500000 1.588761
          2.782688 -31.500000 6.360429
          -2.782688 -31.500000 6.360429
          -10.401794 -31.500000 10.401794
          4.371429 -31.500000 1.912500
          1.589555 -31.500000 2.780332
          0.000000 -31.500000 6.622796
          5.737500 -31.500000 5.737500
          -6.622796 -31.500000 0.000000
          -1.912500 94.500000 -4.371429
          2.780332 94.500000 -1.589555
          -2.781125 94.500000 -1.588761
          -15.000000 94.500000 9.990000
          10.401794 94.500000 -10.401794
          6.360429 94.500000 -2.782688
          15.000000 94.500000 5.010000
          3.825000 94.500000 -3.825000
          0.000000 94.500000 -0.000000
          9.990000 94.500000 -15.000000
          0.000000 94.500000 1.500049
          -10.529195 94.500000 4.606523
          5.737500 94.500000 -5.737500
          5.010000 94.500000 -15.000000
          0.000000 94.500000 -4.644643
          -15.000000 94.500000 15.000000
          -5.010000 94.500000 15.000000
          -9.990000 94.500000 15.000000
          10.401794 94.500000 10.401794
          -5.010000 94.500000 -15.000000
          0.000000 94.500000 4.644643
          2.626052 94.500000 -2.627363
          0.000000 94.500000 15.000000
          0.000000 94.500000 3.119748
          -2.626052 94.500000 2.627363
          -3.825000 94.500000 3.825000
          -3.825000 94.500000 -3.825000
          -10.401794 94.500000 -10.401794
          -2.627363 94.500000 -2.626052
          -15.000000 94.500000 -5.010000
          15.000000 94.500000 -5.010000
          -1.589555 94.500000 -2.780332
          -4.371429 94.500000 1.912500
          1.588761 94.500000 -2.781125
          15.000000 94.500000 -9.990000
          -15.000000 94.500000 -9.990000
          -4.644643 94.500000 -0.000000
          15.000000 94.500000 9.990000
          -4.606523 94.500000 10.529195
          -10.401794 94.500000 10.401794
          1.912500 94.500000 -4.371429
          4.371429 94.500000 -1.912500
          9.990000 94.500000 15.000000
          0.000000 94.500000 -15.000000
          0.000000 94.500000 -3.119748
          4.606523 94.500000 10.529195
          5.737500 94.500000 5.737500
          0.000000 94.500000 6.622796
          15.000000 94.500000 -0.000000
          -2.782688 94.500000 6.360429
          -1.060358 94.500000 1.060660
          10.415348 94.500000 -0.000000
          -4.606523 94.500000 -10.529195
          0.000000 94.500000 -6.622796
          5.010000 94.500000 15.000000
          -15.000000 94.500000 5.010000
          4.606523 94.500000 -10.529195
          0.000000 94.500000 -10.415348
          2.782688 94.500000 6.360429
          1.060660 94.500000 1.060358
          6.622796 94.500000 -0.000000
          15.000000 94.500000 -15.000000
          2.627363 94.500000 2.626052
          -15.000000 94.500000 -15.000000
          1.912500 94.500000 4.371429
          15.000000 94.500000 15.000000
          3.825000 94.500000 3.825000
          -15.000000 94.500000 -0.000000
          4.371429 94.500000 1.912500
          -5.737500 94.500000 -5.737500
          -5.737500 94.500000 5.737500
          0.000000 94.500000 -1.500049
          -2.782688 94.500000 -6.360429
          -1.912500 94.500000 4.371429
          4.644643 94.500000 -0.000000
          -10.529195 94.500000 -4.606523
          3.119748 94.500000 -0.000000
          6.360429 94.500000 2.782688
          -9.990000 94.500000 -15.000000
          -10.415348 94.500000 -0.000000
          -1.500049 94.500000 -0.000000
          -1.060660 94.500000 -1.060358
          0.000000 94.500000 10.415348
          -6.360429 94.500000 -2.782688
          -2.780332 94.500000 1.589555
          -6.360429 94.500000 2.782688
          2.781125 94.500000 1.588761
          -1.588761 94.500000 2.781125
          1.500049 94.500000 -0.000000
          10.529195 94.500000 -4.606523
          -3.119748 94.500000 -0.000000
          1.589555 94.500000 2.780332
          -4.371429 94.500000 -1.912500
          2.782688 94.500000 -6.360429
          -6.622796 94.500000 -0.000000
          10.529195 94.500000 4.606523
          1.060358 94.500000 -1.060660
        </DataArray>
      </Points>
        <Cells>
          <DataArray type="Int32" Name="connectivity" format="ascii" RangeMin="0" RangeMax="6900">
            43 38 0 1
            33 3 25 60
            3 33 43 2
            0 38 47 24
            43 1 4 2
            25 23 78 60
            5 41 87 31
            41 32 34 5
            87 66 22 31
            31 70 30 5
            41 42 81 87
            40 42 41 32
            40 37 39 42
            36 40 32 34
            47 44 9 24
            36 35 37 40
            46 36 34 54
            81 42 39 96
            37 43 33 39
            5 34 54 30
            70 29 10 30
            30 10 52 54
            31 22 28 70
            70 28 17 29
            81 72 66 87
            43 37 35 38
            33 60 96 39
            46 57 35 36
            54 52 55 46
            38 47 57 35
            47 57 59 44
            46 55 59 57
            96 79 72 81
            60 78 79 96
            58 59 44 48
            58 59 55 50
            44 9 6 48
            48 58 53 45
            58 50 51 53
            84 77 53 45
            45 84 27 8
            84 77 80 61
            45 48 11 8
            27 84 61 16
            51 50 49 56
            49 52 10 56
            83 51 56 75
            50 55 52 49
            75 56 10 29
            83 77 53 51
            75 88 92 83
            77 83 92 80
            29 17 88 75
            6 7 11 48
            95 80 61 68
            95 71 92 80
            61 68 13 16
            68 95 89 62
            95 89 86 71
            22 66 67 74
            67 76 64 74
            22 74 85 28
            66 72 76 67
            90 94 82 64
            90 73 65 94
            64 82 85 74
            90 64 76 63
            94 89 86 82
            65 94 89 62
            62 65 26 21
            62 68 18 21
            65 26 12 73
            78 91 63 79
            91 20 12 73
            91 63 90 73
            15 23 78 91
            15 19 20 91
            28 85 93 17
            93 85 82 86
            86 71 69 93
            17 93 69 88
            71 92 88 69
            72 79 63 76
            13 68 18 14
            135 136 114 113
            135 179 119 113
            157 102 186 148
            148 186 127 145
            137 190 109 104
            104 109 102 138
            163 143 155 161
            163 143 174 165
            161 163 159 188
            163 165 183 159
            139 162 134 115
            139 115 142 151
            125 128 178 99
            125 123 189 99
            114 136 100 112
            144 155 142 179
            117 161 155 144
            111 97 128 141
            111 137 130 141
            175 116 149 124
            148 145 103 192
            117 120 188 161
            117 120 184 170
            117 144 146 170
            168 193 185 105
            168 178 177 105
            118 98 193 130
            118 98 138 104
            122 170 146 167
            167 146 135 136
            168 141 128 178
            103 192 115 134
            133 189 99 187
            133 189 180 191
            189 123 166 180
            149 154 150 169
            169 150 111 97
            101 131 127 186
            124 166 180 172
            166 169 149 124
            166 123 97 169
            177 178 99 187
            177 105 107 147
            177 147 181 187
            151 119 179 142
            150 190 137 111
            146 144 179 135
            116 149 154 140
            184 120 107 147
            120 107 156 188
            158 106 101 131
            156 188 159 183
            108 176 191 182
            108 182 167 136
            125 128 97 123
            180 172 176 191
            121 184 170 122
            121 184 147 181
            137 104 118 130
            165 174 157 171
            171 173 183 165
            187 181 129 133
            136 108 152 100
            101 153 190 109
            101 186 102 109
            155 142 115 143
            153 101 106 110
            153 110 140 154
            143 115 192 174
            148 192 174 157
            156 185 173 183
            156 185 105 107
            122 129 182 167
            129 122 121 181
            129 133 191 182
            172 176 164 126
            108 176 164 152
            153 154 150 190
            126 132 124 172
            173 185 193 98
            173 171 138 98
            102 157 171 138
            132 160 175 124
            168 193 130 141
          </DataArray>
          <DataArray type="Int32" Name="offsets" format="ascii" RangeMin="4" RangeMax="672">
            4 8 12 16 20 24 
            28 32 36 40 44 48 
            52 56 60 64 68 72 
            76 80 84 88 92 96 
            100 104 108 112 116 120 
            124 128 132 136 140 144 
            148 152 156 160 164 168 
            172 176 180 184 188 192 
            196 200 204 208 212 216 
            220 224 228 232 236 240 
            244 248 252 256 260 264 
            268 272 276 280 284 288 
            292 296 300 304 308 312 
            316 320 324 328 332 336 
            340 344 348 352 356 360 
            364 368 372 376 380 384 
            388 392 396 400 404 408 
            412 416 420 424 428 432 
            436 440 444 448 452 456 
            460 464 468 472 476 480 
            484 488 492 496 500 504 
            508 512 516 520 524 528 
            532 536 540 544 548 552 
            556 560 564 568 572 576 
            580 584 588 592 596 600 
            604 608 612 616 620 624 
            628 632 636 640 644 648 
            652 656 660 664 668 672 
                      </DataArray>
          <DataArray type="UInt8" Name="types" format="ascii" RangeMin="9" RangeMax="9">
            9 9 9 9 9 9 
            9 9 9 9 9 9 
            9 9 9 9 9 9 
            9 9 9 9 9 9 
            9 9 9 9 9 9 
            9 9 9 9 9 9 
            9 9 9 9 9 9 
            9 9 9 9 9 9 
            9 9 9 9 9 9 
            9 9 9 9 9 9 
            9 9 9 9 9 9 
            9 9 9 9 9 9 
            9 9 9 9 9 9 
            9 9 9 9 9 9 
            9 9 9 9 9 9 
            9 9 9 9 9 9 
            9 9 9 9 9 9 
            9 9 9 9 9 9 
            9 9 9 9 9 9 
            9 9 9 9 9 9 
            9 9 9 9 9 9 
            9 9 9 9 9 9 
            9 9 9 9 9 9 
            9 9 9 9 9 9 
            9 9 9 9 9 9 
            9 9 9 9 9 9 
            9 9 9 9 9 9 
            9 9 9 9 9 9 
                      </DataArray>
        </Cells>
      </Piece>
    </UnstructuredGrid>
</VTKFile>
