<VTKFile type="UnstructuredGrid" version="0.1" byte_order="LittleEndian">
  <UnstructuredGrid>
    <Piece NumberOfPoints="406" NumberOfCells="336">
      <PointData Scalars="FFID">
        <DataArray type="Int32" Name="FFID" format="ascii">
          262
          263
          264
          265
          266
          267
          268
          269
          270
          271
          272
          273
          274
          275
          288
          289
          290
          291
          292
          293
          294
          303
          323
          337
          357
          361
          372
          375
          390
          399
          407
          417
          428
          432
          434
          443
          457
          509
          530
          554
          561
          655
          717
          726
          748
          762
          764
          877
          914
          918
          948
          991
          1004
          1062
          1065
          1070
          1076
          1078
          1087
          1098
          1130
          1139
          1179
          1203
          1226
          1242
          1248
          1257
          1262
          1263
          1273
          1277
          1286
          1294
          1305
          1309
          1373
          1415
          1417
          1429
          1447
          1473
          1495
          1553
          1606
          1607
          1608
          1609
          1610
          1611
          1612
          1620
          1621
          1622
          1623
          1624
          1625
          1626
          1642
          1663
          1673
          1712
          1731
          1762
          1764
          1797
          1806
          1807
          1842
          1844
          1863
          1880
          1907
          1941
          1947
          1998
          2015
          2051
          2077
          2085
          2112
          2135
          2140
          2171
          2192
          2194
          2206
          2269
          2270
          2321
          2385
          2388
          2398
          2399
          2403
          2422
          2435
          2455
          2493
          2517
          2526
          2532
          2553
          2671
          2694
          2700
          2702
          2705
          2712
          2745
          2773
          2777
          2790
          2830
          2835
          2846
          2847
          2870
          2878
          2899
          2901
          2905
          2932
          2937
          2959
          2968
          2969
          2993
          3054
          3068
          3077
          3104
          3129
          3140
          3144
          3170
          3186
          3197
          3225
          3263
          3269
          3295
          3315
          3316
          3317
          3318
          3319
          3320
          3321
          3322
          3323
          3324
          3326
          3327
          3333
          3337
          3408
          3412
          3417
          3447
          3459
          3517
          3567
          3574
          3605
          3612
          3617
          3625
          3643
          3653
          3669
          3681
          3701
          3729
          3741
          3755
          3759
          3781
          3790
          3800
          3821
          3834
          3864
          3887
          3900
          3906
          3935
          3946
          3948
          3956
          4012
          4029
          4046
          4066
          4083
          4096
          4101
          4114
          4119
          4145
          4149
          4155
          4163
          4164
          4172
          4173
          4182
          4220
          4239
          4244
          4247
          4265
          4282
          4321
          4331
          4357
          4363
          4392
          4393
          4437
          4465
          4493
          4497
          4511
          4523
          4568
          4617
          4646
          4654
          4663
          4672
          4687
          4706
          4715
          4733
          4759
          4795
          4802
          4819
          4847
          4877
          4888
          4900
          4915
          4916
          4941
          4942
          4986
          5021
          5032
          5035
          5046
          5065
          5074
          5075
          5100
          5107
          5118
          5131
          5142
          5160
          5177
          5185
          5198
          5199
          5209
          5219
          5230
          5258
          5274
          5302
          5303
          5311
          5335
          5348
          5380
          5382
          5397
          5400
          5434
          5447
          5490
          5533
          5540
          5568
          5573
          5589
          5590
          5644
          5652
          5662
          5663
          5681
          5684
          5685
          5716
          5731
          5741
          5759
          5764
          5777
          5787
          5847
          5896
          5897
          5925
          5960
          5982
          5986
          6009
          6022
          6034
          6080
          6100
          6102
          6107
          6124
          6134
          6139
          6140
          6159
          6162
          6189
          6234
          6248
          6306
          6366
          6402
          6405
          6419
          6448
          6451
          6472
          6510
          6511
          6523
          6536
          6540
          6548
          6566
          6642
          6643
          6645
          6648
          6652
          6669
          6721
          6727
          6734
          6746
          6752
          6761
          6879
          6880
          6881
          6882
          6883
          6884
          6885
          6886
          6887
          6888
          6889
          6890
          6891
          6892
        </DataArray>
        </PointData>
      <Points>
        <DataArray type="Float32" Name="Points" NumberOfComponents="3" format="ascii" RangeMin="0" RangeMax="1.0">
          -5.010000 -31.500000 -15.000000
          -9.990000 -31.500000 -15.000000
          -9.990000 -27.000000 -15.000000
          -5.010000 -27.000000 -15.000000
          -5.010000 -18.000000 -15.000000
          -9.990000 -22.500000 -15.000000
          -5.010000 -22.500000 -15.000000
          -9.990000 -18.000000 -15.000000
          -9.990000 -13.500000 -15.000000
          -5.010000 -13.500000 -15.000000
          -9.990000 -9.000000 -15.000000
          -5.010000 -9.000000 -15.000000
          -5.010000 -4.500000 -15.000000
          -9.990000 -4.500000 -15.000000
          -15.000000 -31.500000 -15.000000
          -15.000000 -27.000000 -15.000000
          -15.000000 -18.000000 -15.000000
          -15.000000 -22.500000 -15.000000
          -15.000000 -9.000000 -15.000000
          -15.000000 -13.500000 -15.000000
          -15.000000 -4.500000 -15.000000
          5.010000 -4.500000 -15.000000
          9.990000 -27.000000 -15.000000
          9.990000 -31.500000 -15.000000
          15.000000 -31.500000 -15.000000
          15.000000 -9.000000 -15.000000
          5.010000 -9.000000 -15.000000
          5.010000 -13.500000 -15.000000
          15.000000 -4.500000 -15.000000
          9.990000 -4.500000 -15.000000
          15.000000 -27.000000 -15.000000
          15.000000 -22.500000 -15.000000
          5.010000 -18.000000 -15.000000
          9.990000 -13.500000 -15.000000
          9.990000 -22.500000 -15.000000
          9.990000 -18.000000 -15.000000
          15.000000 -13.500000 -15.000000
          5.010000 -27.000000 -15.000000
          5.010000 -31.500000 -15.000000
          15.000000 -18.000000 -15.000000
          5.010000 -22.500000 -15.000000
          9.990000 -9.000000 -15.000000
          -5.010000 -31.500000 15.000000
          9.990000 -13.500000 15.000000
          -9.990000 -22.500000 15.000000
          15.000000 -31.500000 15.000000
          15.000000 -9.000000 15.000000
          15.000000 -13.500000 15.000000
          -9.990000 -18.000000 15.000000
          5.010000 -22.500000 15.000000
          -9.990000 -13.500000 15.000000
          15.000000 -18.000000 15.000000
          -9.990000 -9.000000 15.000000
          9.990000 -4.500000 15.000000
          9.990000 -9.000000 15.000000
          9.990000 -31.500000 15.000000
          5.010000 -13.500000 15.000000
          -15.000000 -4.500000 15.000000
          -5.010000 -4.500000 15.000000
          9.990000 -22.500000 15.000000
          -15.000000 -22.500000 15.000000
          5.010000 -9.000000 15.000000
          5.010000 -18.000000 15.000000
          -5.010000 -18.000000 15.000000
          -15.000000 -13.500000 15.000000
          9.990000 -18.000000 15.000000
          15.000000 -4.500000 15.000000
          -15.000000 -31.500000 15.000000
          -9.990000 -31.500000 15.000000
          15.000000 -27.000000 15.000000
          15.000000 -22.500000 15.000000
          -15.000000 -27.000000 15.000000
          -5.010000 -22.500000 15.000000
          5.010000 -31.500000 15.000000
          -9.990000 -4.500000 15.000000
          -15.000000 -18.000000 15.000000
          -15.000000 -9.000000 15.000000
          5.010000 -27.000000 15.000000
          -5.010000 -9.000000 15.000000
          -9.990000 -27.000000 15.000000
          -5.010000 -27.000000 15.000000
          5.010000 -4.500000 15.000000
          9.990000 -27.000000 15.000000
          -5.010000 -13.500000 15.000000
          0.000000 -4.500000 -15.000000
          0.000000 -13.500000 -15.000000
          0.000000 -18.000000 -15.000000
          0.000000 -9.000000 -15.000000
          0.000000 -27.000000 -15.000000
          0.000000 -22.500000 -15.000000
          0.000000 -31.500000 -15.000000
          0.000000 -13.500000 15.000000
          0.000000 -27.000000 15.000000
          0.000000 -31.500000 15.000000
          0.000000 -4.500000 15.000000
          0.000000 -9.000000 15.000000
          0.000000 -22.500000 15.000000
          0.000000 -18.000000 15.000000
          9.990000 18.000000 15.000000
          -15.000000 13.500000 15.000000
          -9.990000 18.000000 15.000000
          -15.000000 13.500000 -15.000000
          15.000000 27.000000 -15.000000
          9.990000 13.500000 15.000000
          0.000000 13.500000 15.000000
          -15.000000 27.000000 -15.000000
          9.990000 27.000000 15.000000
          -9.990000 27.000000 -15.000000
          9.990000 27.000000 -15.000000
          -9.990000 18.000000 -15.000000
          15.000000 4.500000 -15.000000
          15.000000 18.000000 -15.000000
          -15.000000 18.000000 -15.000000
          -15.000000 22.500000 15.000000
          -9.990000 4.500000 -15.000000
          -15.000000 9.000000 15.000000
          0.000000 18.000000 15.000000
          15.000000 27.000000 15.000000
          5.010000 13.500000 15.000000
          -5.010000 18.000000 -15.000000
          -9.990000 13.500000 -15.000000
          -5.010000 27.000000 -15.000000
          5.010000 18.000000 15.000000
          9.990000 22.500000 15.000000
          -5.010000 22.500000 -15.000000
          -9.990000 9.000000 15.000000
          15.000000 9.000000 15.000000
          -15.000000 22.500000 -15.000000
          0.000000 4.500000 -15.000000
          5.010000 4.500000 -15.000000
          -5.010000 9.000000 15.000000
          5.010000 9.000000 15.000000
          5.010000 13.500000 -15.000000
          0.000000 22.500000 15.000000
          -15.000000 27.000000 15.000000
          15.000000 9.000000 -15.000000
          -15.000000 4.500000 -15.000000
          -5.010000 9.000000 -15.000000
          -15.000000 9.000000 -15.000000
          15.000000 4.500000 15.000000
          15.000000 22.500000 15.000000
          0.000000 18.000000 -15.000000
          9.990000 13.500000 -15.000000
          -5.010000 4.500000 15.000000
          0.000000 27.000000 -15.000000
          15.000000 13.500000 15.000000
          -5.010000 4.500000 -15.000000
          5.010000 22.500000 15.000000
          -9.990000 22.500000 15.000000
          9.990000 22.500000 -15.000000
          -9.990000 22.500000 -15.000000
          9.990000 4.500000 15.000000
          5.010000 4.500000 15.000000
          -5.010000 22.500000 15.000000
          -9.990000 27.000000 15.000000
          -5.010000 27.000000 15.000000
          9.990000 4.500000 -15.000000
          0.000000 9.000000 15.000000
          5.010000 27.000000 15.000000
          9.990000 9.000000 15.000000
          -15.000000 18.000000 15.000000
          5.010000 22.500000 -15.000000
          5.010000 18.000000 -15.000000
          -5.010000 13.500000 15.000000
          15.000000 22.500000 -15.000000
          5.010000 9.000000 -15.000000
          0.000000 13.500000 -15.000000
          0.000000 27.000000 15.000000
          9.990000 18.000000 -15.000000
          -5.010000 13.500000 -15.000000
          -9.990000 13.500000 15.000000
          -5.010000 18.000000 15.000000
          -9.990000 4.500000 15.000000
          15.000000 18.000000 15.000000
          0.000000 9.000000 -15.000000
          -15.000000 4.500000 15.000000
          15.000000 13.500000 -15.000000
          0.000000 4.500000 15.000000
          5.010000 27.000000 -15.000000
          0.000000 22.500000 -15.000000
          -9.990000 9.000000 -15.000000
          9.990000 9.000000 -15.000000
          5.010000 0.000000 15.000000
          -5.010000 0.000000 15.000000
          9.990000 0.000000 15.000000
          -9.990000 0.000000 15.000000
          0.000000 0.000000 15.000000
          9.990000 -0.000000 -15.000000
          -9.990000 -0.000000 -15.000000
          -5.010000 -0.000000 -15.000000
          0.000000 -0.000000 -15.000000
          5.010000 -0.000000 -15.000000
          15.000000 -0.000000 -15.000000
          15.000000 0.000000 15.000000
          -15.000000 -0.000000 -15.000000
          -15.000000 0.000000 15.000000
          -5.010000 54.000000 15.000000
          5.010000 85.500000 15.000000
          9.990000 45.000000 15.000000
          0.000000 45.000000 -15.000000
          0.000000 63.000000 -15.000000
          9.990000 67.500000 15.000000
          0.000000 72.000000 -15.000000
          -15.000000 85.500000 -15.000000
          -15.000000 40.500000 -15.000000
          -15.000000 45.000000 15.000000
          -9.990000 63.000000 15.000000
          -15.000000 67.500000 -15.000000
          0.000000 40.500000 -15.000000
          15.000000 45.000000 -15.000000
          -9.990000 85.500000 15.000000
          9.990000 58.500000 15.000000
          9.990000 94.500000 -15.000000
          9.990000 49.500000 -15.000000
          15.000000 85.500000 15.000000
          -15.000000 63.000000 -15.000000
          -9.990000 49.500000 15.000000
          5.010000 94.500000 -15.000000
          5.010000 76.500000 -15.000000
          -15.000000 54.000000 -15.000000
          0.000000 36.000000 15.000000
          -15.000000 94.500000 15.000000
          -15.000000 81.000000 -15.000000
          -5.010000 94.500000 15.000000
          5.010000 81.000000 15.000000
          -5.010000 72.000000 15.000000
          15.000000 90.000000 15.000000
          9.990000 76.500000 15.000000
          -9.990000 94.500000 15.000000
          5.010000 81.000000 -15.000000
          -5.010000 94.500000 -15.000000
          0.000000 49.500000 -15.000000
          -15.000000 49.500000 -15.000000
          -15.000000 90.000000 15.000000
          15.000000 58.500000 15.000000
          15.000000 81.000000 -15.000000
          0.000000 94.500000 15.000000
          15.000000 49.500000 -15.000000
          5.010000 54.000000 -15.000000
          5.010000 36.000000 -15.000000
          -9.990000 40.500000 -15.000000
          15.000000 85.500000 -15.000000
          5.010000 40.500000 15.000000
          -5.010000 49.500000 -15.000000
          -15.000000 36.000000 -15.000000
          -9.990000 72.000000 15.000000
          9.990000 36.000000 15.000000
          -9.990000 49.500000 -15.000000
          -15.000000 45.000000 -15.000000
          -15.000000 49.500000 15.000000
          -5.010000 45.000000 -15.000000
          -15.000000 76.500000 15.000000
          9.990000 76.500000 -15.000000
          -9.990000 85.500000 -15.000000
          -5.010000 58.500000 -15.000000
          -5.010000 81.000000 15.000000
          5.010000 90.000000 15.000000
          15.000000 72.000000 15.000000
          5.010000 58.500000 15.000000
          5.010000 49.500000 -15.000000
          5.010000 67.500000 15.000000
          5.010000 76.500000 15.000000
          9.990000 85.500000 15.000000
          -5.010000 76.500000 -15.000000
          -5.010000 85.500000 15.000000
          -5.010000 76.500000 15.000000
          9.990000 67.500000 -15.000000
          0.000000 54.000000 -15.000000
          9.990000 81.000000 -15.000000
          9.990000 94.500000 15.000000
          5.010000 45.000000 -15.000000
          0.000000 94.500000 -15.000000
          0.000000 81.000000 -15.000000
          15.000000 67.500000 15.000000
          5.010000 63.000000 -15.000000
          -9.990000 76.500000 15.000000
          5.010000 85.500000 -15.000000
          0.000000 85.500000 15.000000
          15.000000 49.500000 15.000000
          15.000000 54.000000 -15.000000
          15.000000 45.000000 15.000000
          5.010000 72.000000 15.000000
          -9.990000 58.500000 15.000000
          -9.990000 76.500000 -15.000000
          9.990000 90.000000 -15.000000
          -9.990000 81.000000 -15.000000
          5.010000 49.500000 15.000000
          5.010000 94.500000 15.000000
          -15.000000 67.500000 15.000000
          9.990000 49.500000 15.000000
          -15.000000 63.000000 15.000000
          -15.000000 90.000000 -15.000000
          5.010000 36.000000 15.000000
          0.000000 85.500000 -15.000000
          -5.010000 72.000000 -15.000000
          15.000000 54.000000 15.000000
          -5.010000 81.000000 -15.000000
          15.000000 94.500000 -15.000000
          -15.000000 94.500000 -15.000000
          -9.990000 63.000000 -15.000000
          0.000000 90.000000 -15.000000
          0.000000 49.500000 15.000000
          5.010000 90.000000 -15.000000
          -15.000000 40.500000 15.000000
          15.000000 94.500000 15.000000
          -5.010000 90.000000 15.000000
          5.010000 63.000000 15.000000
          15.000000 40.500000 15.000000
          -9.990000 90.000000 15.000000
          15.000000 63.000000 -15.000000
          9.990000 40.500000 -15.000000
          -5.010000 54.000000 -15.000000
          -9.990000 45.000000 -15.000000
          -9.990000 67.500000 -15.000000
          15.000000 36.000000 15.000000
          -9.990000 45.000000 15.000000
          0.000000 36.000000 -15.000000
          0.000000 40.500000 15.000000
          -5.010000 45.000000 15.000000
          5.010000 45.000000 15.000000
          15.000000 36.000000 -15.000000
          9.990000 36.000000 -15.000000
          9.990000 72.000000 15.000000
          -15.000000 76.500000 -15.000000
          15.000000 76.500000 15.000000
          0.000000 67.500000 -15.000000
          9.990000 45.000000 -15.000000
          -5.010000 67.500000 -15.000000
          5.010000 40.500000 -15.000000
          0.000000 90.000000 15.000000
          0.000000 58.500000 15.000000
          -5.010000 36.000000 15.000000
          -5.010000 58.500000 15.000000
          15.000000 81.000000 15.000000
          15.000000 63.000000 15.000000
          -5.010000 90.000000 -15.000000
          5.010000 54.000000 15.000000
          -15.000000 81.000000 15.000000
          0.000000 76.500000 -15.000000
          9.990000 90.000000 15.000000
          -9.990000 58.500000 -15.000000
          9.990000 58.500000 -15.000000
          -9.990000 94.500000 -15.000000
          -5.010000 63.000000 -15.000000
          -15.000000 58.500000 15.000000
          9.990000 54.000000 -15.000000
          -9.990000 36.000000 -15.000000
          -5.010000 40.500000 15.000000
          9.990000 63.000000 -15.000000
          15.000000 72.000000 -15.000000
          0.000000 58.500000 -15.000000
          0.000000 67.500000 15.000000
          15.000000 40.500000 -15.000000
          -5.010000 85.500000 -15.000000
          5.010000 58.500000 -15.000000
          -9.990000 36.000000 15.000000
          5.010000 67.500000 -15.000000
          0.000000 76.500000 15.000000
          0.000000 54.000000 15.000000
          -9.990000 81.000000 15.000000
          -5.010000 49.500000 15.000000
          -15.000000 85.500000 15.000000
          0.000000 72.000000 15.000000
          -15.000000 36.000000 15.000000
          -15.000000 58.500000 -15.000000
          9.990000 54.000000 15.000000
          15.000000 76.500000 -15.000000
          -5.010000 36.000000 -15.000000
          -9.990000 72.000000 -15.000000
          -15.000000 54.000000 15.000000
          -9.990000 54.000000 15.000000
          5.010000 72.000000 -15.000000
          9.990000 40.500000 15.000000
          -9.990000 40.500000 15.000000
          -9.990000 54.000000 -15.000000
          9.990000 72.000000 -15.000000
          9.990000 85.500000 -15.000000
          -5.010000 67.500000 15.000000
          -15.000000 72.000000 -15.000000
          -9.990000 90.000000 -15.000000
          -5.010000 40.500000 -15.000000
          9.990000 63.000000 15.000000
          15.000000 58.500000 -15.000000
          9.990000 81.000000 15.000000
          15.000000 90.000000 -15.000000
          -9.990000 67.500000 15.000000
          0.000000 81.000000 15.000000
          0.000000 63.000000 15.000000
          15.000000 67.500000 -15.000000
          -15.000000 72.000000 15.000000
          -5.010000 63.000000 15.000000
          0.000000 45.000000 15.000000
          0.000000 31.500000 15.000000
          9.990000 31.500000 15.000000
          5.010000 31.500000 15.000000
          15.000000 31.500000 15.000000
          -5.010000 31.500000 15.000000
          -9.990000 31.500000 15.000000
          -15.000000 31.500000 15.000000
          -5.010000 31.500000 -15.000000
          -9.990000 31.500000 -15.000000
          5.010000 31.500000 -15.000000
          15.000000 31.500000 -15.000000
          -15.000000 31.500000 -15.000000
          9.990000 31.500000 -15.000000
          0.000000 31.500000 -15.000000
        </DataArray>
      </Points>
        <Cells>
          <DataArray type="Int32" Name="connectivity" format="ascii" RangeMin="0" RangeMax="6900">
            13 188 189 12
            188 114 146 189
            13 10 11 12
            13 20 194 188
            13 20 18 10
            194 136 114 188
            189 190 84 12
            12 11 87 84
            189 146 128 190
            84 21 191 190
            84 87 26 21
            191 190 128 129
            11 9 85 87
            10 8 9 11
            87 85 27 26
            10 18 19 8
            8 7 4 9
            9 4 86 85
            19 16 7 8
            7 5 6 4
            85 86 32 27
            4 6 89 86
            86 89 40 32
            6 3 88 89
            7 16 17 5
            5 2 3 6
            17 15 2 5
            89 88 37 40
            2 1 0 3
            3 0 90 88
            15 14 1 2
            88 90 38 37
            38 37 22 23
            32 35 34 40
            32 27 33 35
            40 34 22 37
            35 39 31 34
            33 27 26 41
            41 25 36 33
            34 31 30 22
            191 187 29 21
            191 129 156 187
            21 26 41 29
            187 192 28 29
            35 33 36 39
            41 29 28 25
            22 30 24 23
            187 156 110 192
            73 93 92 77
            77 49 96 92
            73 55 82 77
            92 80 42 93
            95 94 58 78
            95 91 83 78
            77 82 59 49
            92 96 72 80
            49 62 97 96
            49 59 65 62
            96 97 63 72
            68 79 80 42
            80 79 44 72
            67 71 79 68
            65 51 70 59
            65 43 56 62
            54 43 56 61
            54 53 81 61
            95 61 56 91
            47 43 54 46
            59 70 69 82
            184 193 66 53
            184 182 81 53
            48 63 83 50
            48 75 64 50
            63 72 44 48
            44 60 75 48
            50 83 78 52
            50 52 76 64
            83 91 97 63
            52 74 57 76
            79 44 60 71
            74 185 195 57
            52 78 58 74
            58 183 185 74
            56 62 97 91
            61 81 94 95
            47 51 65 43
            46 66 53 54
            81 94 186 182
            58 183 186 94
            186 177 143 183
            182 152 177 186
            183 143 172 185
            185 172 175 195
            69 45 55 82
            184 151 152 182
            193 139 151 184
            128 174 165 129
            158 147 133 167
            147 122 116 133
            158 394 392 167
            106 393 394 158
            106 123 147 158
            167 155 153 133
            167 392 396 155
            177 143 130 157
            139 126 159 151
            132 162 168 142
            162 161 149 168
            124 119 141 179
            124 121 144 179
            124 150 109 119
            121 107 150 124
            179 141 162 161
            179 144 178 161
            119 169 166 141
            119 109 120 169
            141 166 132 162
            114 180 137 146
            171 153 133 116
            116 104 163 171
            101 138 180 120
            101 112 109 120
            120 180 137 169
            138 136 114 180
            100 148 153 171
            170 100 171 163
            157 131 152 177
            157 104 163 130
            130 125 172 143
            131 118 104 157
            130 163 170 125
            144 405 401 178
            121 399 405 144
            178 161 149 108
            178 401 404 108
            169 137 174 166
            127 150 109 112
            127 105 107 150
            145 126 159 103
            173 145 103 98
            131 118 103 159
            108 102 164 149
            108 404 402 102
            149 168 111 164
            117 395 393 106
            117 140 123 106
            140 173 98 123
            123 98 122 147
            154 148 113 134
            148 153 155 154
            154 397 398 134
            397 396 155 154
            129 165 181 156
            107 400 399 121
            107 105 403 400
            122 118 104 116
            118 103 98 122
            146 137 174 128
            166 174 165 132
            176 142 168 111
            181 142 176 135
            131 159 151 152
            125 115 99 170
            100 160 113 148
            156 181 135 110
            165 132 142 181
            172 175 115 125
            170 99 160 100
            305 329 277 264
            305 308 210 264
            223 228 308 305
            223 236 329 305
            368 294 327 313
            294 202 325 327
            323 378 368 283
            323 222 285 283
            368 294 263 283
            346 244 204 240
            346 240 380 367
            250 243 247 312
            243 231 199 250
            243 311 374 247
            243 311 267 231
            294 202 338 263
            213 345 238 259
            213 237 279 345
            314 246 372 307
            293 300 302 276
            293 272 229 276
            333 383 227 324
            324 227 322 257
            269 339 226 304
            269 287 256 339
            197 224 386 277
            197 256 329 277
            228 221 233 308
            251 275 245 389
            251 275 359 337
            204 248 312 240
            392 396 331 220
            396 397 355 331
            325 200 343 327
            325 200 274 356
            200 343 254 350
            274 200 350 354
            296 272 338 263
            296 285 283 263
            353 293 272 296
            353 253 285 296
            342 379 335 230
            402 320 321 404
            388 349 375 266
            246 314 395 393
            246 292 394 393
            385 245 389 288
            340 254 343 299
            340 364 215 299
            299 313 327 343
            215 207 313 299
            208 380 250 199
            208 328 270 199
            210 359 337 361
            210 308 233 361
            325 202 371 356
            385 206 290 288
            399 367 316 405
            374 311 254 340
            284 376 276 302
            276 229 268 376
            339 262 197 256
            262 383 224 197
            374 247 232 219
            219 364 340 374
            259 270 326 213
            259 231 267 238
            270 199 231 259
            203 253 285 222
            351 362 225 377
            351 387 390 377
            275 265 255 359
            255 264 210 359
            394 292 220 392
            226 214 262 339
            225 245 385 377
            362 357 265 225
            225 265 275 245
            201 273 334 381
            201 260 306 381
            203 291 379 253
            354 341 348 274
            295 365 211 234
            211 258 336 365
            332 196 370 282
            196 360 216 370
            312 248 232 247
            287 256 329 236
            352 320 321 310
            352 310 326 209
            240 312 250 380
            399 367 346 400
            335 353 293 300
            335 230 271 300
            266 348 309 388