<VTKFile type="UnstructuredGrid" version="0.1" byte_order="LittleEndian">
  <UnstructuredGrid>
    <Piece NumberOfPoints="297" NumberOfCells="256">
      <PointData Scalars="FFID">
        <DataArray type="Int32" Name="FFID" format="ascii">
          2
          3
          4
          5
          6
          7
          8
          9
          10
          11
          12
          13
          14
          15
          16
          17
          18
          19
          20
          21
          22
          23
          24
          25
          26
          27
          28
          29
          30
          31
          32
          33
          34
          35
          36
          37
          38
          39
          40
          41
          42
          43
          44
          45
          46
          47
          48
          49
          50
          51
          52
          53
          54
          55
          56
          57
          58
          59
          60
          61
          62
          63
          64
          65
          66
          67
          68
          69
          70
          71
          72
          73
          74
          75
          76
          77
          78
          79
          80
          81
          82
          83
          84
          85
          86
          87
          88
          89
          90
          91
          92
          93
          94
          95
          96
          97
          98
          99
          100
          101
          102
          103
          104
          105
          106
          107
          108
          109
          110
          111
          112
          113
          114
          115
          116
          117
          118
          119
          120
          121
          122
          123
          124
          125
          126
          127
          128
          129
          130
          131
          132
          133
          134
          135
          136
          137
          138
          139
          140
          141
          142
          143
          144
          145
          146
          147
          148
          149
          150
          151
          152
          153
          154
          155
          156
          157
          158
          159
          160
          161
          162
          163
          164
          165
          166
          167
          168
          169
          170
          171
          172
          173
          174
          175
          176
          177
          178
          179
          180
          181
          182
          183
          184
          185
          186
          187
          188
          189
          190
          191
          192
          193
          194
          195
          196
          197
          198
          199
          200
          201
          202
          203
          204
          205
          206
          207
          208
          209
          210
          211
          212
          213
          214
          215
          216
          217
          218
          219
          220
          221
          222
          223
          224
          225
          226
          227
          228
          229
          230
          231
          232
          233
          234
          235
          236
          237
          238
          239
          240
          241
          242
          243
          244
          245
          246
          247
          248
          249
          250
          251
          252
          253
          254
          255
          256
          257
          258
          259
          260
          261
          262
          263
          264
          265
          266
          267
          268
          269
          270
          271
          272
          273
          274
          275
          276
          277
          278
          279
          280
          281
          282
          283
          284
          285
          286
          287
          288
          289
          290
          291
          292
          293
          294
          295
          296
          297
          298
        </DataArray>
        </PointData>
      <Points>
        <DataArray type="Float32" Name="Points" NumberOfComponents="3" format="ascii" RangeMin="0" RangeMax="1.0">
          -19.000000 -7.500000 -7.500000
          -17.125000 -7.500000 -7.500000
          -15.250000 -7.500000 -7.500000
          -13.375000 -7.500000 -7.500000
          -11.500000 -7.500000 -7.500000
          -9.625000 -7.500000 -7.500000
          -7.750000 -7.500000 -7.500000
          -5.875000 -7.500000 -7.500000
          -4.000000 -7.500000 -7.500000
          -2.125000 -7.500000 -7.500000
          -0.250000 -7.500000 -7.500000
          1.625000 -7.500000 -7.500000
          3.500000 -7.500000 -7.500000
          5.375000 -7.500000 -7.500000
          7.250000 -7.500000 -7.500000
          9.125000 -7.500000 -7.500000
          11.000000 -7.500000 -7.500000
          12.875000 -7.500000 -7.500000
          14.750000 -7.500000 -7.500000
          16.625000 -7.500000 -7.500000
          18.500000 -7.500000 -7.500000
          20.375000 -7.500000 -7.500000
          22.250000 -7.500000 -7.500000
          24.125000 -7.500000 -7.500000
          26.000000 -7.500000 -7.500000
          27.875000 -7.500000 -7.500000
          29.750000 -7.500000 -7.500000
          31.625000 -7.500000 -7.500000
          33.500000 -7.500000 -7.500000
          35.375000 -7.500000 -7.500000
          37.250000 -7.500000 -7.500000
          39.125000 -7.500000 -7.500000
          41.000000 -7.500000 -7.500000
          -19.000000 -5.625000 -7.500000
          -17.125000 -5.625000 -7.500000
          -15.250000 -5.625000 -7.500000
          -13.375000 -5.625000 -7.500000
          -11.500000 -5.625000 -7.500000
          -9.625000 -5.625000 -7.500000
          -7.750000 -5.625000 -7.500000
          -5.875000 -5.625000 -7.500000
          -4.000000 -5.625000 -7.500000
          -2.125000 -5.625000 -7.500000
          -0.250000 -5.625000 -7.500000
          1.625000 -5.625000 -7.500000
          3.500000 -5.625000 -7.500000
          5.375000 -5.625000 -7.500000
          7.250000 -5.625000 -7.500000
          9.125000 -5.625000 -7.500000
          11.000000 -5.625000 -7.500000
          12.875000 -5.625000 -7.500000
          14.750000 -5.625000 -7.500000
          16.625000 -5.625000 -7.500000
          18.500000 -5.625000 -7.500000
          20.375000 -5.625000 -7.500000
          22.250000 -5.625000 -7.500000
          24.125000 -5.625000 -7.500000
          26.000000 -5.625000 -7.500000
          27.875000 -5.625000 -7.500000
          29.750000 -5.625000 -7.500000
          31.625000 -5.625000 -7.500000
          33.500000 -5.625000 -7.500000
          35.375000 -5.625000 -7.500000
          37.250000 -5.625000 -7.500000
          39.125000 -5.625000 -7.500000
          41.000000 -5.625000 -7.500000
          -19.000000 -3.750000 -7.500000
          -17.125000 -3.750000 -7.500000
          -15.250000 -3.750000 -7.500000
          -13.375000 -3.750000 -7.500000
          -11.500000 -3.750000 -7.500000
          -9.625000 -3.750000 -7.500000
          -7.750000 -3.750000 -7.500000
          -5.875000 -3.750000 -7.500000
          -4.000000 -3.750000 -7.500000
          -2.125000 -3.750000 -7.500000
          -0.250000 -3.750000 -7.500000
          1.625000 -3.750000 -7.500000
          3.500000 -3.750000 -7.500000
          5.375000 -3.750000 -7.500000
          7.250000 -3.750000 -7.500000
          9.125000 -3.750000 -7.500000
          11.000000 -3.750000 -7.500000
          12.875000 -3.750000 -7.500000
          14.750000 -3.750000 -7.500000
          16.625000 -3.750000 -7.500000
          18.500000 -3.750000 -7.500000
          20.375000 -3.750000 -7.500000
          22.250000 -3.750000 -7.500000
          24.125000 -3.750000 -7.500000
          26.000000 -3.750000 -7.500000
          27.875000 -3.750000 -7.500000
          29.750000 -3.750000 -7.500000
          31.625000 -3.750000 -7.500000
          33.500000 -3.750000 -7.500000
          35.375000 -3.750000 -7.500000
          37.250000 -3.750000 -7.500000
          39.125000 -3.750000 -7.500000
          41.000000 -3.750000 -7.500000
          -19.000000 -1.875000 -7.500000
          -17.125000 -1.875000 -7.500000
          -15.250000 -1.875000 -7.500000
          -13.375000 -1.875000 -7.500000
          -11.500000 -1.875000 -7.500000
          -9.625000 -1.875000 -7.500000
          -7.750000 -1.875000 -7.500000
          -5.875000 -1.875000 -7.500000
          -4.000000 -1.875000 -7.500000
          -2.125000 -1.875000 -7.500000
          -0.250000 -1.875000 -7.500000
          1.625000 -1.875000 -7.500000
          3.500000 -1.875000 -7.500000
          5.375000 -1.875000 -7.500000
          7.250000 -1.875000 -7.500000
          9.125000 -1.875000 -7.500000
          11.000000 -1.875000 -7.500000
          12.875000 -1.875000 -7.500000
          14.750000 -1.875000 -7.500000
          16.625000 -1.875000 -7.500000
          18.500000 -1.875000 -7.500000
          20.375000 -1.875000 -7.500000
          22.250000 -1.875000 -7.500000
          24.125000 -1.875000 -7.500000
          26.000000 -1.875000 -7.500000
          27.875000 -1.875000 -7.500000
          29.750000 -1.875000 -7.500000
          31.625000 -1.875000 -7.500000
          33.500000 -1.875000 -7.500000
          35.375000 -1.875000 -7.500000
          37.250000 -1.875000 -7.500000
          39.125000 -1.875000 -7.500000
          41.000000 -1.875000 -7.500000
          -19.000000 0.000000 -7.500000
          -17.125000 0.000000 -7.500000
          -15.250000 0.000000 -7.500000
          -13.375000 0.000000 -7.500000
          -11.500000 0.000000 -7.500000
          -9.625000 0.000000 -7.500000
          -7.750000 0.000000 -7.500000
          -5.875000 0.000000 -7.500000
          -4.000000 0.000000 -7.500000
          -2.125000 0.000000 -7.500000
          -0.250000 0.000000 -7.500000
          1.625000 0.000000 -7.500000
          3.500000 0.000000 -7.500000
          5.375000 0.000000 -7.500000
          7.250000 0.000000 -7.500000
          9.125000 0.000000 -7.500000
          11.000000 0.000000 -7.500000
          12.875000 0.000000 -7.500000
          14.750000 0.000000 -7.500000
          16.625000 0.000000 -7.500000
          18.500000 0.000000 -7.500000
          20.375000 0.000000 -7.500000
          22.250000 0.000000 -7.500000
          24.125000 0.000000 -7.500000
          26.000000 0.000000 -7.500000
          27.875000 0.000000 -7.500000
          29.750000 0.000000 -7.500000
          31.625000 0.000000 -7.500000
          33.500000 0.000000 -7.500000
          35.375000 0.000000 -7.500000
          37.250000 0.000000 -7.500000
          39.125000 0.000000 -7.500000
          41.000000 0.000000 -7.500000
          -19.000000 1.875000 -7.500000
          -17.125000 1.875000 -7.500000
          -15.250000 1.875000 -7.500000
          -13.375000 1.875000 -7.500000
          -11.500000 1.875000 -7.500000
          -9.625000 1.875000 -7.500000
          -7.750000 1.875000 -7.500000
          -5.875000 1.875000 -7.500000
          -4.000000 1.875000 -7.500000
          -2.125000 1.875000 -7.500000
          -0.250000 1.875000 -7.500000
          1.625000 1.875000 -7.500000
          3.500000 1.875000 -7.500000
          5.375000 1.875000 -7.500000
          7.250000 1.875000 -7.500000
          9.125000 1.875000 -7.500000
          11.000000 1.875000 -7.500000
          12.875000 1.875000 -7.500000
          14.750000 1.875000 -7.500000
          16.625000 1.875000 -7.500000
          18.500000 1.875000 -7.500000
          20.375000 1.875000 -7.500000
          22.250000 1.875000 -7.500000
          24.125000 1.875000 -7.500000
          26.000000 1.875000 -7.500000
          27.875000 1.875000 -7.500000
          29.750000 1.875000 -7.500000
          31.625000 1.875000 -7.500000
          33.500000 1.875000 -7.500000
          35.375000 1.875000 -7.500000
          37.250000 1.875000 -7.500000
          39.125000 1.875000 -7.500000
          41.000000 1.875000 -7.500000
          -19.000000 3.750000 -7.500000
          -17.125000 3.750000 -7.500000
          -15.250000 3.750000 -7.500000
          -13.375000 3.750000 -7.500000
          -11.500000 3.750000 -7.500000
          -9.625000 3.750000 -7.500000
          -7.750000 3.750000 -7.500000
          -5.875000 3.750000 -7.500000
          -4.000000 3.750000 -7.500000
          -2.125000 3.750000 -7.500000
          -0.250000 3.750000 -7.500000
          1.625000 3.750000 -7.500000
          3.500000 3.750000 -7.500000
          5.375000 3.750000 -7.500000
          7.250000 3.750000 -7.500000
          9.125000 3.750000 -7.500000
          11.000000 3.750000 -7.500000
          12.875000 3.750000 -7.500000
          14.750000 3.750000 -7.500000
          16.625000 3.750000 -7.500000
          18.500000 3.750000 -7.500000
          20.375000 3.750000 -7.500000
          22.250000 3.750000 -7.500000
          24.125000 3.750000 -7.500000
          26.000000 3.750000 -7.500000
          27.875000 3.750000 -7.500000
          29.750000 3.750000 -7.500000
          31.625000 3.750000 -7.500000
          33.500000 3.750000 -7.500000
          35.375000 3.750000 -7.500000
          37.250000 3.750000 -7.500000
          39.125000 3.750000 -7.500000
          41.000000 3.750000 -7.500000
          -19.000000 5.625000 -7.500000
          -17.125000 5.625000 -7.500000
          -15.250000 5.625000 -7.500000
          -13.375000 5.625000 -7.500000
          -11.500000 5.625000 -7.500000
          -9.625000 5.625000 -7.500000
          -7.750000 5.625000 -7.500000
          -5.875000 5.625000 -7.500000
          -4.000000 5.625000 -7.500000
          -2.125000 5.625000 -7.500000
          -0.250000 5.625000 -7.500000
          1.625000 5.625000 -7.500000
          3.500000 5.625000 -7.500000
          5.375000 5.625000 -7.500000
          7.250000 5.625000 -7.500000
          9.125000 5.625000 -7.500000
          11.000000 5.625000 -7.500000
          12.875000 5.625000 -7.500000
          14.750000 5.625000 -7.500000
          16.625000 5.625000 -7.500000
          18.500000 5.625000 -7.500000
          20.375000 5.625000 -7.500000
          22.250000 5.625000 -7.500000
          24.125000 5.625000 -7.500000
          26.000000 5.625000 -7.500000
          27.875000 5.625000 -7.500000
          29.750000 5.625000 -7.500000
          31.625000 5.625000 -7.500000
          33.500000 5.625000 -7.500000
          35.375000 5.625000 -7.500000
          37.250000 5.625000 -7.500000
          39.125000 5.625000 -7.500000
          41.000000 5.625000 -7.500000
          -19.000000 7.500000 -7.500000
          -17.125000 7.500000 -7.500000
          -15.250000 7.500000 -7.500000
          -13.375000 7.500000 -7.500000
          -11.500000 7.500000 -7.500000
          -9.625000 7.500000 -7.500000
          -7.750000 7.500000 -7.500000
          -5.875000 7.500000 -7.500000
          -4.000000 7.500000 -7.500000
          -2.125000 7.500000 -7.500000
          -0.250000 7.500000 -7.500000
          1.625000 7.500000 -7.500000
          3.500000 7.500000 -7.500000
          5.375000 7.500000 -7.500000
          7.250000 7.500000 -7.500000
          9.125000 7.500000 -7.500000
          11.000000 7.500000 -7.500000
          12.875000 7.500000 -7.500000
          14.750000 7.500000 -7.500000
          16.625000 7.500000 -7.500000
          18.500000 7.500000 -7.500000
          20.375000 7.500000 -7.500000
          22.250000 7.500000 -7.500000
          24.125000 7.500000 -7.500000
          26.000000 7.500000 -7.500000
          27.875000 7.500000 -7.500000
          29.750000 7.500000 -7.500000
          31.625000 7.500000 -7.500000
          33.500000 7.500000 -7.500000
          35.375000 7.500000 -7.500000
          37.250000 7.500000 -7.500000
          39.125000 7.500000 -7.500000
          41.000000 7.500000 -7.500000
        </DataArray>
      </Points>
        <Cells>
          <DataArray type="Int32" Name="connectivity" format="ascii" RangeMin="0" RangeMax="2672">
            0 1 34 33
            1 2 35 34
            2 3 36 35
            3 4 37 36
            4 5 38 37
            5 6 39 38
            6 7 40 39
            7 8 41 40
            8 9 42 41
            9 10 43 42
            10 11 44 43
            11 12 45 44
            12 13 46 45
            13 14 47 46
            14 15 48 47
            15 16 49 48
            16 17 50 49
            17 18 51 50
            18 19 52 51
            19 20 53 52
            20 21 54 53
            21 22 55 54
            22 23 56 55
            23 24 57 56
            24 25 58 57
            25 26 59 58
            26 27 60 59
            27 28 61 60
            28 29 62 61
            29 30 63 62
            30 31 64 63
            31 32 65 64
            33 34 67 66
            34 35 68 67
            35 36 69 68
            36 37 70 69
            37 38 71 70
            38 39 72 71
            39 40 73 72
            40 41 74 73
            41 42 75 74
            42 43 76 75
            43 44 77 76
            44 45 78 77
            45 46 79 78
            46 47 80 79
            47 48 81 80
            48 49 82 81
            49 50 83 82
            50 51 84 83
            51 52 85 84
            52 53 86 85
            53 54 87 86
            54 55 88 87
            55 56 89 88
            56 57 90 89
            57 58 91 90
            58 59 92 91
            59 60 93 92
            60 61 94 93
            61 62 95 94
            62 63 96 95
            63 64 97 96
            64 65 98 97
            66 67 100 99
            67 68 101 100
            68 69 102 101
            69 70 103 102
            70 71 104 103
            71 72 105 104
            72 73 106 105
            73 74 107 106
            74 75 108 107
            75 76 109 108
            76 77 110 109
            77 78 111 110
            78 79 112 111
            79 80 113 112
            80 81 114 113
            81 82 115 114
            82 83 116 115
            83 84 117 116
            84 85 118 117
            85 86 119 118
            86 87 120 119
            87 88 121 120
            88 89 122 121
            89 90 123 122
            90 91 124 123
            91 92 125 124
            92 93 126 125
            93 94 127 126
            94 95 128 127
            95 96 129 128
            96 97 130 129
            97 98 131 130
            99 100 133 132
            100 101 134 133
            101 102 135 134
            102 103 136 135
            103 104 137 136
            104 105 138 137
            105 106 139 138
            106 107 140 139
            107 108 141 140
            108 109 142 141
            109 110 143 142
            110 111 144 143
            111 112 145 144
            112 113 146 145
            113 114 147 146
            114 115 148 147
            115 116 149 148
            116 117 150 149
            117 118 151 150
            118 119 152 151
            119 120 153 152
            120 121 154 153
            121 122 155 154
            122 123 156 155
            123 124 157 156
            124 125 158 157
            125 126 159 158
            126 127 160 159
            127 128 161 160
            128 129 162 161
            129 130 163 162
            130 131 164 163
            132 133 166 165
            133 134 167 166
            134 135 168 167
            135 136 169 168
            136 137 170 169
            137 138 171 170
            138 139 172 171
            139 140 173 172
            140 141 174 173
            141 142 175 174
            142 143 176 175
            143 144 177 176
            144 145 178 177
            145 146 179 178
            146 147 180 179
            147 148 181 180
            148 149 182 181
            149 150 183 182
            150 151 184 183
            151 152 185 184
            152 153 186 185
            153 154 187 186
            154 155 188 187
            155 156 189 188
            156 157 190 189
            157 158 191 190
            158 159 192 191
            159 160 193 192
            160 161 194 193
            161 162 195 194
            162 163 196 195
            163 164 197 196
            165 166 199 198
            166 167 200 199
            167 168 201 200
            168 169 202 201
            169 170 203 202
            170 171 204 203
            171 172 205 204
            172 173 206 205
            173 174 207 206
            174 175 208 207
            175 176 209 208
            176 177 210 209
            177 178 211 210
            178 179 212 211
            179 180 213 212
            180 181 214 213
            181 182 215 214
            182 183 216 215
            183 184 217 216
            184 185 218 217
            185 186 219 218
            186 187 220 219
            187 188 221 220
            188 189 222 221
            189 190 223 222
            190 191 224 223
            191 192 225 224
            192 193 226 225
            193 194 227 226
            194 195 228 227
            195 196 229 228
            196 197 230 229
            198 199 232 231
            199 200 233 232
            200 201 234 233
            201 202 235 234
            202 203 236 235
            203 204 237 236
            204 205 238 237
            205 206 239 238
            206 207 240 239
            207 208 241 240
            208 209 242 241
            209 210 243 242
            210 211 244 243
            211 212 245 244
            212 213 246 245
            213 214 247 246
            214 215 248 247
            215 216 249 248
            216 217 250 249
            217 218 251 250
            218 219 252 251
            219 220 253 252
            220 221 254 253
            221 222 255 254
            222 223 256 255
            223 224 257 256
            224 225 258 257
            225 226 259 258
            226 227 260 259
            227 228 261 260
            228 229 262 261
            229 230 263 262
            231 232 265 264
            232 233 266 265
            233 234 267 266
            234 235 268 267
            235 236 269 268
            236 237 270 269
            237 238 271 270
            238 239 272 271
            239 240 273 272
            240 241 274 273
            241 242 275 274
            242 243 276 275
            243 244 277 276
            244 245 278 277
            245 246 279 278
            246 247 280 279
            247 248 281 280
            248 249 282 281
            249 250 283 282
            250 251 284 283
            251 252 285 284
            252 253 286 285
            253 254 287 286
            254 255 288 287
            255 256 289 288
            256 257 290 289
            257 258 291 290
            258 259 292 291
            259 260 293 292
            260 261 294 293
            261 262 295 294
            262 263 296 295
          </DataArray>
          <DataArray type="Int32" Name="offsets" format="ascii" RangeMin="4" RangeMax="1024">
            4 8 12 16 20 24 
            28 32 36 40 44 48 
            52 56 60 64 68 72 
            76 80 84 88 92 96 
            100 104 108 112 116 120 
            124 128 132 136 140 144 
            148 152 156 160 164 168 
            172 176 180 184 188 192 
            196 200 204 208 212 216 
            220 224 228 232 236 240 
            244 248 252 256 260 264 
            268 272 276 280 284 288 
            292 296 300 304 308 312 
            316 320 324 328 332 336 
            340 344 348 352 356 360 
            364 368 372 376 380 384 
            388 392 396 400 404 408 
            412 416 420 424 428 432 
            436 440 444 448 452 456 
            460 464 468 472 476 480 
            484 488 492 496 500 504 
            508 512 516 520 524 528 
            532 536 540 544 548 552 
            556 560 564 568 572 576 
            580 584 588 592 596 600 
            604 608 612 616 620 624 
            628 632 636 640 644 648 
            652 656 660 664 668 672 
            676 680 684 688 692 696 
            700 704 708 712 716 720 
            724 728 732 736 740 744 
            748 752 756 760 764 768 
            772 776 780 784 788 792 
            796 800 804 808 812 816 
            820 824 828 832 836 840 
            844 848 852 856 860 864 
            868 872 876 880 884 888 
            892 896 900 904 908 912 
            916 920 924 928 932 936 
            940 944 948 952 956 960 
            964 968 972 976 980 984 
            988 992 996 1000 1004 1008 
            1012 1016 1020 1024 
          </DataArray>
          <DataArray type="UInt8" Name="types" format="ascii" RangeMin="9" RangeMax="9">
            9 9 9 9 9 9 
            9 9 9 9 9 9 
            9 9 9 9 9 9 
            9 9 9 9 9 9 
            9 9 9 9 9 9 
            9 9 9 9 9 9 
            9 9 9 9 9 9 
            9 9 9 9 9 9 
            9 9 9 9 9 9 
            9 9 9 9 9 9 
            9 9 9 9 9 9 
            9 9 9 9 9 9 
            9 9 9 9 9 9 
            9 9 9 9 9 9 
            9 9 9 9 9 9 
            9 9 9 9 9 9 
            9 9 9 9 9 9 
            9 9 9 9 9 9 
            9 9 9 9 9 9 
            9 9 9 9 9 9 
            9 9 9 9 9 9 
            9 9 9 9 9 9 
            9 9 9 9 9 9 
            9 9 9 9 9 9 
            9 9 9 9 9 9 
            9 9 9 9 9 9 
            9 9 9 9 9 9 
            9 9 9 9 9 9 
            9 9 9 9 9 9 
            9 9 9 9 9 9 
            9 9 9 9 9 9 
            9 9 9 9 9 9 
            9 9 9 9 9 9 
            9 9 9 9 9 9 
            9 9 9 9 9 9 
            9 9 9 9 9 9 
            9 9 9 9 9 9 
            9 9 9 9 9 9 
            9 9 9 9 9 9 
            9 9 9 9 9 9 
            9 9 9 9 9 9 
            9 9 9 9 9 9 
            9 9 9 9 
          </DataArray>
        </Cells>
      </Piece>
    </UnstructuredGrid>
</VTKFile>
