<VTKFile type="UnstructuredGrid" version="0.1" byte_order="LittleEndian">
  <UnstructuredGrid>
    <Piece NumberOfPoints="297" NumberOfCells="256">
      <PointData Scalars="FFID">
        <DataArray type="Int32" Name="FFID" format="ascii">
          2378
          2379
          2380
          2381
          2382
          2383
          2384
          2385
          2386
          2387
          2388
          2389
          2390
          2391
          2392
          2393
          2394
          2395
          2396
          2397
          2398
          2399
          2400
          2401
          2402
          2403
          2404
          2405
          2406
          2407
          2408
          2409
          2410
          2411
          2412
          2413
          2414
          2415
          2416
          2417
          2418
          2419
          2420
          2421
          2422
          2423
          2424
          2425
          2426
          2427
          2428
          2429
          2430
          2431
          2432
          2433
          2434
          2435
          2436
          2437
          2438
          2439
          2440
          2441
          2442
          2443
          2444
          2445
          2446
          2447
          2448
          2449
          2450
          2451
          2452
          2453
          2454
          2455
          2456
          2457
          2458
          2459
          2460
          2461
          2462
          2463
          2464
          2465
          2466
          2467
          2468
          2469
          2470
          2471
          2472
          2473
          2474
          2475
          2476
          2477
          2478
          2479
          2480
          2481
          2482
          2483
          2484
          2485
          2486
          2487
          2488
          2489
          2490
          2491
          2492
          2493
          2494
          2495
          2496
          2497
          2498
          2499
          2500
          2501
          2502
          2503
          2504
          2505
          2506
          2507
          2508
          2509
          2510
          2511
          2512
          2513
          2514
          2515
          2516
          2517
          2518
          2519
          2520
          2521
          2522
          2523
          2524
          2525
          2526
          2527
          2528
          2529
          2530
          2531
          2532
          2533
          2534
          2535
          2536
          2537
          2538
          2539
          2540
          2541
          2542
          2543
          2544
          2545
          2546
          2547
          2548
          2549
          2550
          2551
          2552
          2553
          2554
          2555
          2556
          2557
          2558
          2559
          2560
          2561
          2562
          2563
          2564
          2565
          2566
          2567
          2568
          2569
          2570
          2571
          2572
          2573
          2574
          2575
          2576
          2577
          2578
          2579
          2580
          2581
          2582
          2583
          2584
          2585
          2586
          2587
          2588
          2589
          2590
          2591
          2592
          2593
          2594
          2595
          2596
          2597
          2598
          2599
          2600
          2601
          2602
          2603
          2604
          2605
          2606
          2607
          2608
          2609
          2610
          2611
          2612
          2613
          2614
          2615
          2616
          2617
          2618
          2619
          2620
          2621
          2622
          2623
          2624
          2625
          2626
          2627
          2628
          2629
          2630
          2631
          2632
          2633
          2634
          2635
          2636
          2637
          2638
          2639
          2640
          2641
          2642
          2643
          2644
          2645
          2646
          2647
          2648
          2649
          2650
          2651
          2652
          2653
          2654
          2655
          2656
          2657
          2658
          2659
          2660
          2661
          2662
          2663
          2664
          2665
          2666
          2667
          2668
          2669
          2670
          2671
          2672
          2673
          2674
        </DataArray>
        </PointData>
      <Points>
        <DataArray type="Float32" Name="Points" NumberOfComponents="3" format="ascii" RangeMin="0" RangeMax="1.0">
          -19.000000 -7.500000 7.500000
          -17.125000 -7.500000 7.500000
          -15.250000 -7.500000 7.500000
          -13.375000 -7.500000 7.500000
          -11.500000 -7.500000 7.500000
          -9.625000 -7.500000 7.500000
          -7.750000 -7.500000 7.500000
          -5.875000 -7.500000 7.500000
          -4.000000 -7.500000 7.500000
          -2.125000 -7.500000 7.500000
          -0.250000 -7.500000 7.500000
          1.625000 -7.500000 7.500000
          3.500000 -7.500000 7.500000
          5.375000 -7.500000 7.500000
          7.250000 -7.500000 7.500000
          9.125000 -7.500000 7.500000
          11.000000 -7.500000 7.500000
          12.875000 -7.500000 7.500000
          14.750000 -7.500000 7.500000
          16.625000 -7.500000 7.500000
          18.500000 -7.500000 7.500000
          20.375000 -7.500000 7.500000
          22.250000 -7.500000 7.500000
          24.125000 -7.500000 7.500000
          26.000000 -7.500000 7.500000
          27.875000 -7.500000 7.500000
          29.750000 -7.500000 7.500000
          31.625000 -7.500000 7.500000
          33.500000 -7.500000 7.500000
          35.375000 -7.500000 7.500000
          37.250000 -7.500000 7.500000
          39.125000 -7.500000 7.500000
          41.000000 -7.500000 7.500000
          -19.000000 -5.625000 7.500000
          -17.125000 -5.625000 7.500000
          -15.250000 -5.625000 7.500000
          -13.375000 -5.625000 7.500000
          -11.500000 -5.625000 7.500000
          -9.625000 -5.625000 7.500000
          -7.750000 -5.625000 7.500000
          -5.875000 -5.625000 7.500000
          -4.000000 -5.625000 7.500000
          -2.125000 -5.625000 7.500000
          -0.250000 -5.625000 7.500000
          1.625000 -5.625000 7.500000
          3.500000 -5.625000 7.500000
          5.375000 -5.625000 7.500000
          7.250000 -5.625000 7.500000
          9.125000 -5.625000 7.500000
          11.000000 -5.625000 7.500000
          12.875000 -5.625000 7.500000
          14.750000 -5.625000 7.500000
          16.625000 -5.625000 7.500000
          18.500000 -5.625000 7.500000
          20.375000 -5.625000 7.500000
          22.250000 -5.625000 7.500000
          24.125000 -5.625000 7.500000
          26.000000 -5.625000 7.500000
          27.875000 -5.625000 7.500000
          29.750000 -5.625000 7.500000
          31.625000 -5.625000 7.500000
          33.500000 -5.625000 7.500000
          35.375000 -5.625000 7.500000
          37.250000 -5.625000 7.500000
          39.125000 -5.625000 7.500000
          41.000000 -5.625000 7.500000
          -19.000000 -3.750000 7.500000
          -17.125000 -3.750000 7.500000
          -15.250000 -3.750000 7.500000
          -13.375000 -3.750000 7.500000
          -11.500000 -3.750000 7.500000
          -9.625000 -3.750000 7.500000
          -7.750000 -3.750000 7.500000
          -5.875000 -3.750000 7.500000
          -4.000000 -3.750000 7.500000
          -2.125000 -3.750000 7.500000
          -0.250000 -3.750000 7.500000
          1.625000 -3.750000 7.500000
          3.500000 -3.750000 7.500000
          5.375000 -3.750000 7.500000
          7.250000 -3.750000 7.500000
          9.125000 -3.750000 7.500000
          11.000000 -3.750000 7.500000
          12.875000 -3.750000 7.500000
          14.750000 -3.750000 7.500000
          16.625000 -3.750000 7.500000
          18.500000 -3.750000 7.500000
          20.375000 -3.750000 7.500000
          22.250000 -3.750000 7.500000
          24.125000 -3.750000 7.500000
          26.000000 -3.750000 7.500000
          27.875000 -3.750000 7.500000
          29.750000 -3.750000 7.500000
          31.625000 -3.750000 7.500000
          33.500000 -3.750000 7.500000
          35.375000 -3.750000 7.500000
          37.250000 -3.750000 7.500000
          39.125000 -3.750000 7.500000
          41.000000 -3.750000 7.500000
          -19.000000 -1.875000 7.500000
          -17.125000 -1.875000 7.500000
          -15.250000 -1.875000 7.500000
          -13.375000 -1.875000 7.500000
          -11.500000 -1.875000 7.500000
          -9.625000 -1.875000 7.500000
          -7.750000 -1.875000 7.500000
          -5.875000 -1.875000 7.500000
          -4.000000 -1.875000 7.500000
          -2.125000 -1.875000 7.500000
          -0.250000 -1.875000 7.500000
          1.625000 -1.875000 7.500000
          3.500000 -1.875000 7.500000
          5.375000 -1.875000 7.500000
          7.250000 -1.875000 7.500000
          9.125000 -1.875000 7.500000
          11.000000 -1.875000 7.500000
          12.875000 -1.875000 7.500000
          14.750000 -1.875000 7.500000
          16.625000 -1.875000 7.500000
          18.500000 -1.875000 7.500000
          20.375000 -1.875000 7.500000
          22.250000 -1.875000 7.500000
          24.125000 -1.875000 7.500000
          26.000000 -1.875000 7.500000
          27.875000 -1.875000 7.500000
          29.750000 -1.875000 7.500000
          31.625000 -1.875000 7.500000
          33.500000 -1.875000 7.500000
          35.375000 -1.875000 7.500000
          37.250000 -1.875000 7.500000
          39.125000 -1.875000 7.500000
          41.000000 -1.875000 7.500000
          -19.000000 0.000000 7.500000
          -17.125000 0.000000 7.500000
          -15.250000 0.000000 7.500000
          -13.375000 0.000000 7.500000
          -11.500000 0.000000 7.500000
          -9.625000 0.000000 7.500000
          -7.750000 0.000000 7.500000
          -5.875000 0.000000 7.500000
          -4.000000 0.000000 7.500000
          -2.125000 0.000000 7.500000
          -0.250000 0.000000 7.500000
          1.625000 0.000000 7.500000
          3.500000 0.000000 7.500000
          5.375000 0.000000 7.500000
          7.250000 0.000000 7.500000
          9.125000 0.000000 7.500000
          11.000000 0.000000 7.500000
          12.875000 0.000000 7.500000
          14.750000 0.000000 7.500000
          16.625000 0.000000 7.500000
          18.500000 0.000000 7.500000
          20.375000 0.000000 7.500000
          22.250000 0.000000 7.500000
          24.125000 0.000000 7.500000
          26.000000 0.000000 7.500000
          27.875000 0.000000 7.500000
          29.750000 0.000000 7.500000
          31.625000 0.000000 7.500000
          33.500000 0.000000 7.500000
          35.375000 0.000000 7.500000
          37.250000 0.000000 7.500000
          39.125000 0.000000 7.500000
          41.000000 0.000000 7.500000
          -19.000000 1.875000 7.500000
          -17.125000 1.875000 7.500000
          -15.250000 1.875000 7.500000
          -13.375000 1.875000 7.500000
          -11.500000 1.875000 7.500000
          -9.625000 1.875000 7.500000
          -7.750000 1.875000 7.500000
          -5.875000 1.875000 7.500000
          -4.000000 1.875000 7.500000
          -2.125000 1.875000 7.500000
          -0.250000 1.875000 7.500000
          1.625000 1.875000 7.500000
          3.500000 1.875000 7.500000
          5.375000 1.875000 7.500000
          7.250000 1.875000 7.500000
          9.125000 1.875000 7.500000
          11.000000 1.875000 7.500000
          12.875000 1.875000 7.500000
          14.750000 1.875000 7.500000
          16.625000 1.875000 7.500000
          18.500000 1.875000 7.500000
          20.375000 1.875000 7.500000
          22.250000 1.875000 7.500000
          24.125000 1.875000 7.500000
          26.000000 1.875000 7.500000
          27.875000 1.875000 7.500000
          29.750000 1.875000 7.500000
          31.625000 1.875000 7.500000
          33.500000 1.875000 7.500000
          35.375000 1.875000 7.500000
          37.250000 1.875000 7.500000
          39.125000 1.875000 7.500000
          41.000000 1.875000 7.500000
          -19.000000 3.750000 7.500000
          -17.125000 3.750000 7.500000
          -15.250000 3.750000 7.500000
          -13.375000 3.750000 7.500000
          -11.500000 3.750000 7.500000
          -9.625000 3.750000 7.500000
          -7.750000 3.750000 7.500000
          -5.875000 3.750000 7.500000
          -4.000000 3.750000 7.500000
          -2.125000 3.750000 7.500000
          -0.250000 3.750000 7.500000
          1.625000 3.750000 7.500000
          3.500000 3.750000 7.500000
          5.375000 3.750000 7.500000
          7.250000 3.750000 7.500000
          9.125000 3.750000 7.500000
          11.000000 3.750000 7.500000
          12.875000 3.750000 7.500000
          14.750000 3.750000 7.500000
          16.625000 3.750000 7.500000
          18.500000 3.750000 7.500000
          20.375000 3.750000 7.500000
          22.250000 3.750000 7.500000
          24.125000 3.750000 7.500000
          26.000000 3.750000 7.500000
          27.875000 3.750000 7.500000
          29.750000 3.750000 7.500000
          31.625000 3.750000 7.500000
          33.500000 3.750000 7.500000
          35.375000 3.750000 7.500000
          37.250000 3.750000 7.500000
          39.125000 3.750000 7.500000
          41.000000 3.750000 7.500000
          -19.000000 5.625000 7.500000
          -17.125000 5.625000 7.500000
          -15.250000 5.625000 7.500000
          -13.375000 5.625000 7.500000
          -11.500000 5.625000 7.500000
          -9.625000 5.625000 7.500000
          -7.750000 5.625000 7.500000
          -5.875000 5.625000 7.500000
          -4.000000 5.625000 7.500000
          -2.125000 5.625000 7.500000
          -0.250000 5.625000 7.500000
          1.625000 5.625000 7.500000
          3.500000 5.625000 7.500000
          5.375000 5.625000 7.500000
          7.250000 5.625000 7.500000
          9.125000 5.625000 7.500000
          11.000000 5.625000 7.500000
          12.875000 5.625000 7.500000
          14.750000 5.625000 7.500000
          16.625000 5.625000 7.500000
          18.500000 5.625000 7.500000
          20.375000 5.625000 7.500000
          22.250000 5.625000 7.500000
          24.125000 5.625000 7.500000
          26.000000 5.625000 7.500000
          27.875000 5.625000 7.500000
          29.750000 5.625000 7.500000
          31.625000 5.625000 7.500000
          33.500000 5.625000 7.500000
          35.375000 5.625000 7.500000
          37.250000 5.625000 7.500000
          39.125000 5.625000 7.500000
          41.000000 5.625000 7.500000
          -19.000000 7.500000 7.500000
          -17.125000 7.500000 7.500000
          -15.250000 7.500000 7.500000
          -13.375000 7.500000 7.500000
          -11.500000 7.500000 7.500000
          -9.625000 7.500000 7.500000
          -7.750000 7.500000 7.500000
          -5.875000 7.500000 7.500000
          -4.000000 7.500000 7.500000
          -2.125000 7.500000 7.500000
          -0.250000 7.500000 7.500000
          1.625000 7.500000 7.500000
          3.500000 7.500000 7.500000
          5.375000 7.500000 7.500000
          7.250000 7.500000 7.500000
          9.125000 7.500000 7.500000
          11.000000 7.500000 7.500000
          12.875000 7.500000 7.500000
          14.750000 7.500000 7.500000
          16.625000 7.500000 7.500000
          18.500000 7.500000 7.500000
          20.375000 7.500000 7.500000
          22.250000 7.500000 7.500000
          24.125000 7.500000 7.500000
          26.000000 7.500000 7.500000
          27.875000 7.500000 7.500000
          29.750000 7.500000 7.500000
          31.625000 7.500000 7.500000
          33.500000 7.500000 7.500000
          35.375000 7.500000 7.500000
          37.250000 7.500000 7.500000
          39.125000 7.500000 7.500000
          41.000000 7.500000 7.500000
        </DataArray>
      </Points>
        <Cells>
          <DataArray type="Int32" Name="connectivity" format="ascii" RangeMin="0" RangeMax="2672">
            0 33 34 1
            1 34 35 2
            2 35 36 3
            3 36 37 4
            4 37 38 5
            5 38 39 6
            6 39 40 7
            7 40 41 8
            8 41 42 9
            9 42 43 10
            10 43 44 11
            11 44 45 12
            12 45 46 13
            13 46 47 14
            14 47 48 15
            15 48 49 16
            16 49 50 17
            17 50 51 18
            18 51 52 19
            19 52 53 20
            20 53 54 21
            21 54 55 22
            22 55 56 23
            23 56 57 24
            24 57 58 25
            25 58 59 26
            26 59 60 27
            27 60 61 28
            28 61 62 29
            29 62 63 30
            30 63 64 31
            31 64 65 32
            33 66 67 34
            34 67 68 35
            35 68 69 36
            36 69 70 37
            37 70 71 38
            38 71 72 39
            39 72 73 40
            40 73 74 41
            41 74 75 42
            42 75 76 43
            43 76 77 44
            44 77 78 45
            45 78 79 46
            46 79 80 47
            47 80 81 48
            48 81 82 49
            49 82 83 50
            50 83 84 51
            51 84 85 52
            52 85 86 53
            53 86 87 54
            54 87 88 55
            55 88 89 56
            56 89 90 57
            57 90 91 58
            58 91 92 59
            59 92 93 60
            60 93 94 61
            61 94 95 62
            62 95 96 63
            63 96 97 64
            64 97 98 65
            66 99 100 67
            67 100 101 68
            68 101 102 69
            69 102 103 70
            70 103 104 71
            71 104 105 72
            72 105 106 73
            73 106 107 74
            74 107 108 75
            75 108 109 76
            76 109 110 77
            77 110 111 78
            78 111 112 79
            79 112 113 80
            80 113 114 81
            81 114 115 82
            82 115 116 83
            83 116 117 84
            84 117 118 85
            85 118 119 86
            86 119 120 87
            87 120 121 88
            88 121 122 89
            89 122 123 90
            90 123 124 91
            91 124 125 92
            92 125 126 93
            93 126 127 94
            94 127 128 95
            95 128 129 96
            96 129 130 97
            97 130 131 98
            99 132 133 100
            100 133 134 101
            101 134 135 102
            102 135 136 103
            103 136 137 104
            104 137 138 105
            105 138 139 106
            106 139 140 107
            107 140 141 108
            108 141 142 109
            109 142 143 110
            110 143 144 111
            111 144 145 112
            112 145 146 113
            113 146 147 114
            114 147 148 115
            115 148 149 116
            116 149 150 117
            117 150 151 118
            118 151 152 119
            119 152 153 120
            120 153 154 121
            121 154 155 122
            122 155 156 123
            123 156 157 124
            124 157 158 125
            125 158 159 126
            126 159 160 127
            127 160 161 128
            128 161 162 129
            129 162 163 130
            130 163 164 131
            132 165 166 133
            133 166 167 134
            134 167 168 135
            135 168 169 136
            136 169 170 137
            137 170 171 138
            138 171 172 139
            139 172 173 140
            140 173 174 141
            141 174 175 142
            142 175 176 143
            143 176 177 144
            144 177 178 145
            145 178 179 146
            146 179 180 147
            147 180 181 148
            148 181 182 149
            149 182 183 150
            150 183 184 151
            151 184 185 152
            152 185 186 153
            153 186 187 154
            154 187 188 155
            155 188 189 156
            156 189 190 157
            157 190 191 158
            158 191 192 159
            159 192 193 160
            160 193 194 161
            161 194 195 162
            162 195 196 163
            163 196 197 164
            165 198 199 166
            166 199 200 167
            167 200 201 168
            168 201 202 169
            169 202 203 170
            170 203 204 171
            171 204 205 172
            172 205 206 173
            173 206 207 174
            174 207 208 175
            175 208 209 176
            176 209 210 177
            177 210 211 178
            178 211 212 179
            179 212 213 180
            180 213 214 181
            181 214 215 182
            182 215 216 183
            183 216 217 184
            184 217 218 185
            185 218 219 186
            186 219 220 187
            187 220 221 188
            188 221 222 189
            189 222 223 190
            190 223 224 191
            191 224 225 192
            192 225 226 193
            193 226 227 194
            194 227 228 195
            195 228 229 196
            196 229 230 197
            198 231 232 199
            199 232 233 200
            200 233 234 201
            201 234 235 202
            202 235 236 203
            203 236 237 204
            204 237 238 205
            205 238 239 206
            206 239 240 207
            207 240 241 208
            208 241 242 209
            209 242 243 210
            210 243 244 211
            211 244 245 212
            212 245 246 213
            213 246 247 214
            214 247 248 215
            215 248 249 216
            216 249 250 217
            217 250 251 218
            218 251 252 219
            219 252 253 220
            220 253 254 221
            221 254 255 222
            222 255 256 223
            223 256 257 224
            224 257 258 225
            225 258 259 226
            226 259 260 227
            227 260 261 228
            228 261 262 229
            229 262 263 230
            231 264 265 232
            232 265 266 233
            233 266 267 234
            234 267 268 235
            235 268 269 236
            236 269 270 237
            237 270 271 238
            238 271 272 239
            239 272 273 240
            240 273 274 241
            241 274 275 242
            242 275 276 243
            243 276 277 244
            244 277 278 245
            245 278 279 246
            246 279 280 247
            247 280 281 248
            248 281 282 249
            249 282 283 250
            250 283 284 251
            251 284 285 252
            252 285 286 253
            253 286 287 254
            254 287 288 255
            255 288 289 256
            256 289 290 257
            257 290 291 258
            258 291 292 259
            259 292 293 260
            260 293 294 261
            261 294 295 262
            262 295 296 263
          </DataArray>
          <DataArray type="Int32" Name="offsets" format="ascii" RangeMin="4" RangeMax="1024">
            4 8 12 16 20 24 
            28 32 36 40 44 48 
            52 56 60 64 68 72 
            76 80 84 88 92 96 
            100 104 108 112 116 120 
            124 128 132 136 140 144 
            148 152 156 160 164 168 
            172 176 180 184 188 192 
            196 200 204 208 212 216 
            220 224 228 232 236 240 
            244 248 252 256 260 264 
            268 272 276 280 284 288 
            292 296 300 304 308 312 
            316 320 324 328 332 336 
            340 344 348 352 356 360 
            364 368 372 376 380 384 
            388 392 396 400 404 408 
            412 416 420 424 428 432 
            436 440 444 448 452 456 
            460 464 468 472 476 480 
            484 488 492 496 500 504 
            508 512 516 520 524 528 
            532 536 540 544 548 552 
            556 560 564 568 572 576 
            580 584 588 592 596 600 
            604 608 612 616 620 624 
            628 632 636 640 644 648 
            652 656 660 664 668 672 
            676 680 684 688 692 696 
            700 704 708 712 716 720 
            724 728 732 736 740 744 
            748 752 756 760 764 768 
            772 776 780 784 788 792 
            796 800 804 808 812 816 
            820 824 828 832 836 840 
            844 848 852 856 860 864 
            868 872 876 880 884 888 
            892 896 900 904 908 912 
            916 920 924 928 932 936 
            940 944 948 952 956 960 
            964 968 972 976 980 984 
            988 992 996 1000 1004 1008 
            1012 1016 1020 1024 
          </DataArray>
          <DataArray type="UInt8" Name="types" format="ascii" RangeMin="9" RangeMax="9">
            9 9 9 9 9 9 
            9 9 9 9 9 9 
            9 9 9 9 9 9 
            9 9 9 9 9 9 
            9 9 9 9 9 9 
            9 9 9 9 9 9 
            9 9 9 9 9 9 
            9 9 9 9 9 9 
            9 9 9 9 9 9 
            9 9 9 9 9 9 
            9 9 9 9 9 9 
            9 9 9 9 9 9 
            9 9 9 9 9 9 
            9 9 9 9 9 9 
            9 9 9 9 9 9 
            9 9 9 9 9 9 
            9 9 9 9 9 9 
            9 9 9 9 9 9 
            9 9 9 9 9 9 
            9 9 9 9 9 9 
            9 9 9 9 9 9 
            9 9 9 9 9 9 
            9 9 9 9 9 9 
            9 9 9 9 9 9 
            9 9 9 9 9 9 
            9 9 9 9 9 9 
            9 9 9 9 9 9 
            9 9 9 9 9 9 
            9 9 9 9 9 9 
            9 9 9 9 9 9 
            9 9 9 9 9 9 
            9 9 9 9 9 9 
            9 9 9 9 9 9 
            9 9 9 9 9 9 
            9 9 9 9 9 9 
            9 9 9 9 9 9 
            9 9 9 9 9 9 
            9 9 9 9 9 9 
            9 9 9 9 9 9 
            9 9 9 9 9 9 
            9 9 9 9 9 9 
            9 9 9 9 9 9 
            9 9 9 9 
          </DataArray>
        </Cells>
      </Piece>
    </UnstructuredGrid>
</VTKFile>
