<VTKFile type="UnstructuredGrid" version="0.1" byte_order="LittleEndian">
  <UnstructuredGrid>
    <Piece NumberOfPoints="297" NumberOfCells="256">
      <PointData Scalars="FFID">
        <DataArray type="Int32" Name="FFID" format="ascii">
          266
          267
          268
          269
          270
          271
          272
          273
          274
          275
          276
          277
          278
          279
          280
          281
          282
          283
          284
          285
          286
          287
          288
          289
          290
          291
          292
          293
          294
          295
          296
          297
          298
          563
          564
          565
          566
          567
          568
          569
          570
          571
          572
          573
          574
          575
          576
          577
          578
          579
          580
          581
          582
          583
          584
          585
          586
          587
          588
          589
          590
          591
          592
          593
          594
          595
          860
          861
          862
          863
          864
          865
          866
          867
          868
          869
          870
          871
          872
          873
          874
          875
          876
          877
          878
          879
          880
          881
          882
          883
          884
          885
          886
          887
          888
          889
          890
          891
          892
          1157
          1158
          1159
          1160
          1161
          1162
          1163
          1164
          1165
          1166
          1167
          1168
          1169
          1170
          1171
          1172
          1173
          1174
          1175
          1176
          1177
          1178
          1179
          1180
          1181
          1182
          1183
          1184
          1185
          1186
          1187
          1188
          1189
          1454
          1455
          1456
          1457
          1458
          1459
          1460
          1461
          1462
          1463
          1464
          1465
          1466
          1467
          1468
          1469
          1470
          1471
          1472
          1473
          1474
          1475
          1476
          1477
          1478
          1479
          1480
          1481
          1482
          1483
          1484
          1485
          1486
          1751
          1752
          1753
          1754
          1755
          1756
          1757
          1758
          1759
          1760
          1761
          1762
          1763
          1764
          1765
          1766
          1767
          1768
          1769
          1770
          1771
          1772
          1773
          1774
          1775
          1776
          1777
          1778
          1779
          1780
          1781
          1782
          1783
          2048
          2049
          2050
          2051
          2052
          2053
          2054
          2055
          2056
          2057
          2058
          2059
          2060
          2061
          2062
          2063
          2064
          2065
          2066
          2067
          2068
          2069
          2070
          2071
          2072
          2073
          2074
          2075
          2076
          2077
          2078
          2079
          2080
          2345
          2346
          2347
          2348
          2349
          2350
          2351
          2352
          2353
          2354
          2355
          2356
          2357
          2358
          2359
          2360
          2361
          2362
          2363
          2364
          2365
          2366
          2367
          2368
          2369
          2370
          2371
          2372
          2373
          2374
          2375
          2376
          2377
          2642
          2643
          2644
          2645
          2646
          2647
          2648
          2649
          2650
          2651
          2652
          2653
          2654
          2655
          2656
          2657
          2658
          2659
          2660
          2661
          2662
          2663
          2664
          2665
          2666
          2667
          2668
          2669
          2670
          2671
          2672
          2673
          2674
        </DataArray>
        </PointData>
      <Points>
        <DataArray type="Float32" Name="Points" NumberOfComponents="3" format="ascii" RangeMin="0" RangeMax="1.0">
          -19.000000 7.500000 -7.500000
          -17.125000 7.500000 -7.500000
          -15.250000 7.500000 -7.500000
          -13.375000 7.500000 -7.500000
          -11.500000 7.500000 -7.500000
          -9.625000 7.500000 -7.500000
          -7.750000 7.500000 -7.500000
          -5.875000 7.500000 -7.500000
          -4.000000 7.500000 -7.500000
          -2.125000 7.500000 -7.500000
          -0.250000 7.500000 -7.500000
          1.625000 7.500000 -7.500000
          3.500000 7.500000 -7.500000
          5.375000 7.500000 -7.500000
          7.250000 7.500000 -7.500000
          9.125000 7.500000 -7.500000
          11.000000 7.500000 -7.500000
          12.875000 7.500000 -7.500000
          14.750000 7.500000 -7.500000
          16.625000 7.500000 -7.500000
          18.500000 7.500000 -7.500000
          20.375000 7.500000 -7.500000
          22.250000 7.500000 -7.500000
          24.125000 7.500000 -7.500000
          26.000000 7.500000 -7.500000
          27.875000 7.500000 -7.500000
          29.750000 7.500000 -7.500000
          31.625000 7.500000 -7.500000
          33.500000 7.500000 -7.500000
          35.375000 7.500000 -7.500000
          37.250000 7.500000 -7.500000
          39.125000 7.500000 -7.500000
          41.000000 7.500000 -7.500000
          -19.000000 7.500000 -5.625000
          -17.125000 7.500000 -5.625000
          -15.250000 7.500000 -5.625000
          -13.375000 7.500000 -5.625000
          -11.500000 7.500000 -5.625000
          -9.625000 7.500000 -5.625000
          -7.750000 7.500000 -5.625000
          -5.875000 7.500000 -5.625000
          -4.000000 7.500000 -5.625000
          -2.125000 7.500000 -5.625000
          -0.250000 7.500000 -5.625000
          1.625000 7.500000 -5.625000
          3.500000 7.500000 -5.625000
          5.375000 7.500000 -5.625000
          7.250000 7.500000 -5.625000
          9.125000 7.500000 -5.625000
          11.000000 7.500000 -5.625000
          12.875000 7.500000 -5.625000
          14.750000 7.500000 -5.625000
          16.625000 7.500000 -5.625000
          18.500000 7.500000 -5.625000
          20.375000 7.500000 -5.625000
          22.250000 7.500000 -5.625000
          24.125000 7.500000 -5.625000
          26.000000 7.500000 -5.625000
          27.875000 7.500000 -5.625000
          29.750000 7.500000 -5.625000
          31.625000 7.500000 -5.625000
          33.500000 7.500000 -5.625000
          35.375000 7.500000 -5.625000
          37.250000 7.500000 -5.625000
          39.125000 7.500000 -5.625000
          41.000000 7.500000 -5.625000
          -19.000000 7.500000 -3.750000
          -17.125000 7.500000 -3.750000
          -15.250000 7.500000 -3.750000
          -13.375000 7.500000 -3.750000
          -11.500000 7.500000 -3.750000
          -9.625000 7.500000 -3.750000
          -7.750000 7.500000 -3.750000
          -5.875000 7.500000 -3.750000
          -4.000000 7.500000 -3.750000
          -2.125000 7.500000 -3.750000
          -0.250000 7.500000 -3.750000
          1.625000 7.500000 -3.750000
          3.500000 7.500000 -3.750000
          5.375000 7.500000 -3.750000
          7.250000 7.500000 -3.750000
          9.125000 7.500000 -3.750000
          11.000000 7.500000 -3.750000
          12.875000 7.500000 -3.750000
          14.750000 7.500000 -3.750000
          16.625000 7.500000 -3.750000
          18.500000 7.500000 -3.750000
          20.375000 7.500000 -3.750000
          22.250000 7.500000 -3.750000
          24.125000 7.500000 -3.750000
          26.000000 7.500000 -3.750000
          27.875000 7.500000 -3.750000
          29.750000 7.500000 -3.750000
          31.625000 7.500000 -3.750000
          33.500000 7.500000 -3.750000
          35.375000 7.500000 -3.750000
          37.250000 7.500000 -3.750000
          39.125000 7.500000 -3.750000
          41.000000 7.500000 -3.750000
          -19.000000 7.500000 -1.875000
          -17.125000 7.500000 -1.875000
          -15.250000 7.500000 -1.875000
          -13.375000 7.500000 -1.875000
          -11.500000 7.500000 -1.875000
          -9.625000 7.500000 -1.875000
          -7.750000 7.500000 -1.875000
          -5.875000 7.500000 -1.875000
          -4.000000 7.500000 -1.875000
          -2.125000 7.500000 -1.875000
          -0.250000 7.500000 -1.875000
          1.625000 7.500000 -1.875000
          3.500000 7.500000 -1.875000
          5.375000 7.500000 -1.875000
          7.250000 7.500000 -1.875000
          9.125000 7.500000 -1.875000
          11.000000 7.500000 -1.875000
          12.875000 7.500000 -1.875000
          14.750000 7.500000 -1.875000
          16.625000 7.500000 -1.875000
          18.500000 7.500000 -1.875000
          20.375000 7.500000 -1.875000
          22.250000 7.500000 -1.875000
          24.125000 7.500000 -1.875000
          26.000000 7.500000 -1.875000
          27.875000 7.500000 -1.875000
          29.750000 7.500000 -1.875000
          31.625000 7.500000 -1.875000
          33.500000 7.500000 -1.875000
          35.375000 7.500000 -1.875000
          37.250000 7.500000 -1.875000
          39.125000 7.500000 -1.875000
          41.000000 7.500000 -1.875000
          -19.000000 7.500000 0.000000
          -17.125000 7.500000 0.000000
          -15.250000 7.500000 0.000000
          -13.375000 7.500000 0.000000
          -11.500000 7.500000 0.000000
          -9.625000 7.500000 0.000000
          -7.750000 7.500000 0.000000
          -5.875000 7.500000 0.000000
          -4.000000 7.500000 0.000000
          -2.125000 7.500000 0.000000
          -0.250000 7.500000 0.000000
          1.625000 7.500000 0.000000
          3.500000 7.500000 0.000000
          5.375000 7.500000 0.000000
          7.250000 7.500000 0.000000
          9.125000 7.500000 0.000000
          11.000000 7.500000 0.000000
          12.875000 7.500000 0.000000
          14.750000 7.500000 0.000000
          16.625000 7.500000 0.000000
          18.500000 7.500000 0.000000
          20.375000 7.500000 0.000000
          22.250000 7.500000 0.000000
          24.125000 7.500000 0.000000
          26.000000 7.500000 0.000000
          27.875000 7.500000 0.000000
          29.750000 7.500000 0.000000
          31.625000 7.500000 0.000000
          33.500000 7.500000 0.000000
          35.375000 7.500000 0.000000
          37.250000 7.500000 0.000000
          39.125000 7.500000 0.000000
          41.000000 7.500000 0.000000
          -19.000000 7.500000 1.875000
          -17.125000 7.500000 1.875000
          -15.250000 7.500000 1.875000
          -13.375000 7.500000 1.875000
          -11.500000 7.500000 1.875000
          -9.625000 7.500000 1.875000
          -7.750000 7.500000 1.875000
          -5.875000 7.500000 1.875000
          -4.000000 7.500000 1.875000
          -2.125000 7.500000 1.875000
          -0.250000 7.500000 1.875000
          1.625000 7.500000 1.875000
          3.500000 7.500000 1.875000
          5.375000 7.500000 1.875000
          7.250000 7.500000 1.875000
          9.125000 7.500000 1.875000
          11.000000 7.500000 1.875000
          12.875000 7.500000 1.875000
          14.750000 7.500000 1.875000
          16.625000 7.500000 1.875000
          18.500000 7.500000 1.875000
          20.375000 7.500000 1.875000
          22.250000 7.500000 1.875000
          24.125000 7.500000 1.875000
          26.000000 7.500000 1.875000
          27.875000 7.500000 1.875000
          29.750000 7.500000 1.875000
          31.625000 7.500000 1.875000
          33.500000 7.500000 1.875000
          35.375000 7.500000 1.875000
          37.250000 7.500000 1.875000
          39.125000 7.500000 1.875000
          41.000000 7.500000 1.875000
          -19.000000 7.500000 3.750000
          -17.125000 7.500000 3.750000
          -15.250000 7.500000 3.750000
          -13.375000 7.500000 3.750000
          -11.500000 7.500000 3.750000
          -9.625000 7.500000 3.750000
          -7.750000 7.500000 3.750000
          -5.875000 7.500000 3.750000
          -4.000000 7.500000 3.750000
          -2.125000 7.500000 3.750000
          -0.250000 7.500000 3.750000
          1.625000 7.500000 3.750000
          3.500000 7.500000 3.750000
          5.375000 7.500000 3.750000
          7.250000 7.500000 3.750000
          9.125000 7.500000 3.750000
          11.000000 7.500000 3.750000
          12.875000 7.500000 3.750000
          14.750000 7.500000 3.750000
          16.625000 7.500000 3.750000
          18.500000 7.500000 3.750000
          20.375000 7.500000 3.750000
          22.250000 7.500000 3.750000
          24.125000 7.500000 3.750000
          26.000000 7.500000 3.750000
          27.875000 7.500000 3.750000
          29.750000 7.500000 3.750000
          31.625000 7.500000 3.750000
          33.500000 7.500000 3.750000
          35.375000 7.500000 3.750000
          37.250000 7.500000 3.750000
          39.125000 7.500000 3.750000
          41.000000 7.500000 3.750000
          -19.000000 7.500000 5.625000
          -17.125000 7.500000 5.625000
          -15.250000 7.500000 5.625000
          -13.375000 7.500000 5.625000
          -11.500000 7.500000 5.625000
          -9.625000 7.500000 5.625000
          -7.750000 7.500000 5.625000
          -5.875000 7.500000 5.625000
          -4.000000 7.500000 5.625000
          -2.125000 7.500000 5.625000
          -0.250000 7.500000 5.625000
          1.625000 7.500000 5.625000
          3.500000 7.500000 5.625000
          5.375000 7.500000 5.625000
          7.250000 7.500000 5.625000
          9.125000 7.500000 5.625000
          11.000000 7.500000 5.625000
          12.875000 7.500000 5.625000
          14.750000 7.500000 5.625000
          16.625000 7.500000 5.625000
          18.500000 7.500000 5.625000
          20.375000 7.500000 5.625000
          22.250000 7.500000 5.625000
          24.125000 7.500000 5.625000
          26.000000 7.500000 5.625000
          27.875000 7.500000 5.625000
          29.750000 7.500000 5.625000
          31.625000 7.500000 5.625000
          33.500000 7.500000 5.625000
          35.375000 7.500000 5.625000
          37.250000 7.500000 5.625000
          39.125000 7.500000 5.625000
          41.000000 7.500000 5.625000
          -19.000000 7.500000 7.500000
          -17.125000 7.500000 7.500000
          -15.250000 7.500000 7.500000
          -13.375000 7.500000 7.500000
          -11.500000 7.500000 7.500000
          -9.625000 7.500000 7.500000
          -7.750000 7.500000 7.500000
          -5.875000 7.500000 7.500000
          -4.000000 7.500000 7.500000
          -2.125000 7.500000 7.500000
          -0.250000 7.500000 7.500000
          1.625000 7.500000 7.500000
          3.500000 7.500000 7.500000
          5.375000 7.500000 7.500000
          7.250000 7.500000 7.500000
          9.125000 7.500000 7.500000
          11.000000 7.500000 7.500000
          12.875000 7.500000 7.500000
          14.750000 7.500000 7.500000
          16.625000 7.500000 7.500000
          18.500000 7.500000 7.500000
          20.375000 7.500000 7.500000
          22.250000 7.500000 7.500000
          24.125000 7.500000 7.500000
          26.000000 7.500000 7.500000
          27.875000 7.500000 7.500000
          29.750000 7.500000 7.500000
          31.625000 7.500000 7.500000
          33.500000 7.500000 7.500000
          35.375000 7.500000 7.500000
          37.250000 7.500000 7.500000
          39.125000 7.500000 7.500000
          41.000000 7.500000 7.500000
        </DataArray>
      </Points>
        <Cells>
          <DataArray type="Int32" Name="connectivity" format="ascii" RangeMin="0" RangeMax="2672">
            1 34 33 0
            2 35 34 1
            3 36 35 2
            4 37 36 3
            5 38 37 4
            6 39 38 5
            7 40 39 6
            8 41 40 7
            9 42 41 8
            10 43 42 9
            11 44 43 10
            12 45 44 11
            13 46 45 12
            14 47 46 13
            15 48 47 14
            16 49 48 15
            17 50 49 16
            18 51 50 17
            19 52 51 18
            20 53 52 19
            21 54 53 20
            22 55 54 21
            23 56 55 22
            24 57 56 23
            25 58 57 24
            26 59 58 25
            27 60 59 26
            28 61 60 27
            29 62 61 28
            30 63 62 29
            31 64 63 30
            32 65 64 31
            34 67 66 33
            35 68 67 34
            36 69 68 35
            37 70 69 36
            38 71 70 37
            39 72 71 38
            40 73 72 39
            41 74 73 40
            42 75 74 41
            43 76 75 42
            44 77 76 43
            45 78 77 44
            46 79 78 45
            47 80 79 46
            48 81 80 47
            49 82 81 48
            50 83 82 49
            51 84 83 50
            52 85 84 51
            53 86 85 52
            54 87 86 53
            55 88 87 54
            56 89 88 55
            57 90 89 56
            58 91 90 57
            59 92 91 58
            60 93 92 59
            61 94 93 60
            62 95 94 61
            63 96 95 62
            64 97 96 63
            65 98 97 64
            67 100 99 66
            68 101 100 67
            69 102 101 68
            70 103 102 69
            71 104 103 70
            72 105 104 71
            73 106 105 72
            74 107 106 73
            75 108 107 74
            76 109 108 75
            77 110 109 76
            78 111 110 77
            79 112 111 78
            80 113 112 79
            81 114 113 80
            82 115 114 81
            83 116 115 82
            84 117 116 83
            85 118 117 84
            86 119 118 85
            87 120 119 86
            88 121 120 87
            89 122 121 88
            90 123 122 89
            91 124 123 90
            92 125 124 91
            93 126 125 92
            94 127 126 93
            95 128 127 94
            96 129 128 95
            97 130 129 96
            98 131 130 97
            100 133 132 99
            101 134 133 100
            102 135 134 101
            103 136 135 102
            104 137 136 103
            105 138 137 104
            106 139 138 105
            107 140 139 106
            108 141 140 107
            109 142 141 108
            110 143 142 109
            111 144 143 110
            112 145 144 111
            113 146 145 112
            114 147 146 113
            115 148 147 114
            116 149 148 115
            117 150 149 116
            118 151 150 117
            119 152 151 118
            120 153 152 119
            121 154 153 120
            122 155 154 121
            123 156 155 122
            124 157 156 123
            125 158 157 124
            126 159 158 125
            127 160 159 126
            128 161 160 127
            129 162 161 128
            130 163 162 129
            131 164 163 130
            133 166 165 132
            134 167 166 133
            135 168 167 134
            136 169 168 135
            137 170 169 136
            138 171 170 137
            139 172 171 138
            140 173 172 139
            141 174 173 140
            142 175 174 141
            143 176 175 142
            144 177 176 143
            145 178 177 144
            146 179 178 145
            147 180 179 146
            148 181 180 147
            149 182 181 148
            150 183 182 149
            151 184 183 150
            152 185 184 151
            153 186 185 152
            154 187 186 153
            155 188 187 154
            156 189 188 155
            157 190 189 156
            158 191 190 157
            159 192 191 158
            160 193 192 159
            161 194 193 160
            162 195 194 161
            163 196 195 162
            164 197 196 163
            166 199 198 165
            167 200 199 166
            168 201 200 167
            169 202 201 168
            170 203 202 169
            171 204 203 170
            172 205 204 171
            173 206 205 172
            174 207 206 173
            175 208 207 174
            176 209 208 175
            177 210 209 176
            178 211 210 177
            179 212 211 178
            180 213 212 179
            181 214 213 180
            182 215 214 181
            183 216 215 182
            184 217 216 183
            185 218 217 184
            186 219 218 185
            187 220 219 186
            188 221 220 187
            189 222 221 188
            190 223 222 189
            191 224 223 190
            192 225 224 191
            193 226 225 192
            194 227 226 193
            195 228 227 194
            196 229 228 195
            197 230 229 196
            199 232 231 198
            200 233 232 199
            201 234 233 200
            202 235 234 201
            203 236 235 202
            204 237 236 203
            205 238 237 204
            206 239 238 205
            207 240 239 206
            208 241 240 207
            209 242 241 208
            210 243 242 209
            211 244 243 210
            212 245 244 211
            213 246 245 212
            214 247 246 213
            215 248 247 214
            216 249 248 215
            217 250 249 216
            218 251 250 217
            219 252 251 218
            220 253 252 219
            221 254 253 220
            222 255 254 221
            223 256 255 222
            224 257 256 223
            225 258 257 224
            226 259 258 225
            227 260 259 226
            228 261 260 227
            229 262 261 228
            230 263 262 229
            232 265 264 231
            233 266 265 232
            234 267 266 233
            235 268 267 234
            236 269 268 235
            237 270 269 236
            238 271 270 237
            239 272 271 238
            240 273 272 239
            241 274 273 240
            242 275 274 241
            243 276 275 242
            244 277 276 243
            245 278 277 244
            246 279 278 245
            247 280 279 246
            248 281 280 247
            249 282 281 248
            250 283 282 249
            251 284 283 250
            252 285 284 251
            253 286 285 252
            254 287 286 253
            255 288 287 254
            256 289 288 255
            257 290 289 256
            258 291 290 257
            259 292 291 258
            260 293 292 259
            261 294 293 260
            262 295 294 261
            263 296 295 262
          </DataArray>
          <DataArray type="Int32" Name="offsets" format="ascii" RangeMin="4" RangeMax="1024">
            4 8 12 16 20 24 
            28 32 36 40 44 48 
            52 56 60 64 68 72 
            76 80 84 88 92 96 
            100 104 108 112 116 120 
            124 128 132 136 140 144 
            148 152 156 160 164 168 
            172 176 180 184 188 192 
            196 200 204 208 212 216 
            220 224 228 232 236 240 
            244 248 252 256 260 264 
            268 272 276 280 284 288 
            292 296 300 304 308 312 
            316 320 324 328 332 336 
            340 344 348 352 356 360 
            364 368 372 376 380 384 
            388 392 396 400 404 408 
            412 416 420 424 428 432 
            436 440 444 448 452 456 
            460 464 468 472 476 480 
            484 488 492 496 500 504 
            508 512 516 520 524 528 
            532 536 540 544 548 552 
            556 560 564 568 572 576 
            580 584 588 592 596 600 
            604 608 612 616 620 624 
            628 632 636 640 644 648 
            652 656 660 664 668 672 
            676 680 684 688 692 696 
            700 704 708 712 716 720 
            724 728 732 736 740 744 
            748 752 756 760 764 768 
            772 776 780 784 788 792 
            796 800 804 808 812 816 
            820 824 828 832 836 840 
            844 848 852 856 860 864 
            868 872 876 880 884 888 
            892 896 900 904 908 912 
            916 920 924 928 932 936 
            940 944 948 952 956 960 
            964 968 972 976 980 984 
            988 992 996 1000 1004 1008 
            1012 1016 1020 1024 
          </DataArray>
          <DataArray type="UInt8" Name="types" format="ascii" RangeMin="9" RangeMax="9">
            9 9 9 9 9 9 
            9 9 9 9 9 9 
            9 9 9 9 9 9 
            9 9 9 9 9 9 
            9 9 9 9 9 9 
            9 9 9 9 9 9 
            9 9 9 9 9 9 
            9 9 9 9 9 9 
            9 9 9 9 9 9 
            9 9 9 9 9 9 
            9 9 9 9 9 9 
            9 9 9 9 9 9 
            9 9 9 9 9 9 
            9 9 9 9 9 9 
            9 9 9 9 9 9 
            9 9 9 9 9 9 
            9 9 9 9 9 9 
            9 9 9 9 9 9 
            9 9 9 9 9 9 
            9 9 9 9 9 9 
            9 9 9 9 9 9 
            9 9 9 9 9 9 
            9 9 9 9 9 9 
            9 9 9 9 9 9 
            9 9 9 9 9 9 
            9 9 9 9 9 9 
            9 9 9 9 9 9 
            9 9 9 9 9 9 
            9 9 9 9 9 9 
            9 9 9 9 9 9 
            9 9 9 9 9 9 
            9 9 9 9 9 9 
            9 9 9 9 9 9 
            9 9 9 9 9 9 
            9 9 9 9 9 9 
            9 9 9 9 9 9 
            9 9 9 9 9 9 
            9 9 9 9 9 9 
            9 9 9 9 9 9 
            9 9 9 9 9 9 
            9 9 9 9 9 9 
            9 9 9 9 9 9 
            9 9 9 9 
          </DataArray>
        </Cells>
      </Piece>
    </UnstructuredGrid>
</VTKFile>
