<VTKFile type="UnstructuredGrid" version="0.1" byte_order="LittleEndian">
  <UnstructuredGrid>
    <Piece NumberOfPoints="100" NumberOfCells="48">
      <PointData Scalars="FFID">
        <DataArray type="Int32" Name="FFID" format="ascii">
          1972
          1975
          1978
          2000
          2035
          2060
          2064
          2088
          2110
          2111
          2112
          2113
          2114
          2115
          2116
          2117
          2118
          2119
          2120
          2121
          2122
          2123
          2124
          2125
          2126
          2127
          2128
          2129
          2130
          2131
          2132
          2133
          2134
          2135
          2136
          2137
          2138
          2139
          2140
          2141
          2142
          2143
          2144
          2145
          2146
          2147
          2148
          2149
          2150
          2151
          2152
          2153
          2154
          2155
          2156
          2157
          2158
          2159
          2160
          2161
          2162
          2163
          2164
          2165
          2166
          2167
          2168
          2169
          2170
          2171
          2172
          2173
          2174
          2175
          2176
          2177
          2178
          2179
          2180
          2181
          2182
          2183
          2184
          2185
          2186
          2187
          2188
          2189
          2190
          2191
          2192
          2193
          2194
          2195
          2196
          2197
          2198
          2199
          2200
          2201
        </DataArray>
        </PointData>
      <Points>
        <DataArray type="Float32" Name="Points" NumberOfComponents="3" format="ascii" RangeMin="0" RangeMax="1.0">
          20.000000 0.000000 -0.600000
          -20.000000 0.000000 -0.600000
          -20.000000 71.666667 -0.600000
          20.000000 71.666667 -0.600000
          20.000000 71.666667 0.600000
          -20.000000 71.666667 0.600000
          -20.000000 0.000000 0.600000
          20.000000 0.000000 0.600000
          16.666667 0.000000 -0.600000
          -16.666667 0.000000 -0.600000
          0.000000 0.000000 -0.600000
          -6.666667 0.000000 -0.600000
          13.333333 0.000000 -0.600000
          -10.000000 0.000000 -0.600000
          6.666667 0.000000 -0.600000
          10.000000 0.000000 -0.600000
          -13.333333 0.000000 -0.600000
          3.333333 0.000000 -0.600000
          -3.333333 0.000000 -0.600000
          -1.666667 0.000000 -0.600000
          1.666667 0.000000 -0.600000
          18.333333 0.000000 -0.600000
          -5.000000 0.000000 -0.600000
          -8.333333 0.000000 -0.600000
          -18.333333 0.000000 -0.600000
          8.333333 0.000000 -0.600000
          5.000000 0.000000 -0.600000
          15.000000 0.000000 -0.600000
          -15.000000 0.000000 -0.600000
          -11.666667 0.000000 -0.600000
          11.666667 0.000000 -0.600000
          -10.000000 0.000000 0.600000
          10.000000 0.000000 0.600000
          -11.666667 0.000000 0.600000
          -8.333333 0.000000 0.600000
          13.333333 0.000000 0.600000
          11.666667 0.000000 0.600000
          5.000000 0.000000 0.600000
          -6.666667 0.000000 0.600000
          -5.000000 0.000000 0.600000
          18.333333 0.000000 0.600000
          3.333333 0.000000 0.600000
          15.000000 0.000000 0.600000
          -13.333333 0.000000 0.600000
          -1.666667 0.000000 0.600000
          -3.333333 0.000000 0.600000
          1.666667 0.000000 0.600000
          8.333333 0.000000 0.600000
          -18.333333 0.000000 0.600000
          -15.000000 0.000000 0.600000
          16.666667 0.000000 0.600000
          0.000000 0.000000 0.600000
          -16.666667 0.000000 0.600000
          6.666667 0.000000 0.600000
          -18.333333 71.666667 -0.600000
          -16.666667 71.666667 -0.600000
          -15.000000 71.666667 -0.600000
          -13.333333 71.666667 -0.600000
          -11.666667 71.666667 -0.600000
          -10.000000 71.666667 -0.600000
          -8.333333 71.666667 -0.600000
          -6.666667 71.666667 -0.600000
          -5.000000 71.666667 -0.600000
          -3.333333 71.666667 -0.600000
          -1.666667 71.666667 -0.600000
          0.000000 71.666667 -0.600000
          1.666667 71.666667 -0.600000
          3.333333 71.666667 -0.600000
          5.000000 71.666667 -0.600000
          6.666667 71.666667 -0.600000
          8.333333 71.666667 -0.600000
          10.000000 71.666667 -0.600000
          11.666667 71.666667 -0.600000
          13.333333 71.666667 -0.600000
          15.000000 71.666667 -0.600000
          16.666667 71.666667 -0.600000
          18.333333 71.666667 -0.600000
          15.000000 71.666667 0.600000
          -13.333333 71.666667 0.600000
          6.666667 71.666667 0.600000
          -6.666667 71.666667 0.600000
          3.333333 71.666667 0.600000
          18.333333 71.666667 0.600000
          -18.333333 71.666667 0.600000
          16.666667 71.666667 0.600000
          11.666667 71.666667 0.600000
          5.000000 71.666667 0.600000
          -11.666667 71.666667 0.600000
          10.000000 71.666667 0.600000
          -8.333333 71.666667 0.600000
          13.333333 71.666667 0.600000
          8.333333 71.666667 0.600000
          0.000000 71.666667 0.600000
          -10.000000 71.666667 0.600000
          1.666667 71.666667 0.600000
          -15.000000 71.666667 0.600000
          -3.333333 71.666667 0.600000
          -5.000000 71.666667 0.600000
          -1.666667 71.666667 0.600000
          -16.666667 71.666667 0.600000
        </DataArray>
      </Points>
        <Cells>
          <DataArray type="Int32" Name="connectivity" format="ascii" RangeMin="0" RangeMax="2199">
            54 83 5 2
            55 99 83 54
            56 95 99 55
            57 78 95 56
            58 87 78 57
            59 93 87 58
            60 89 93 59
            61 80 89 60
            62 97 80 61
            63 96 97 62
            64 98 96 63
            65 92 98 64
            66 94 92 65
            67 81 94 66
            68 86 81 67
            69 79 86 68
            70 91 79 69
            71 88 91 70
            72 85 88 71
            73 90 85 72
            74 77 90 73
            75 84 77 74
            76 82 84 75
            3 4 82 76
            18 45 44 19
            19 44 51 10
            22 39 45 18
            11 38 39 22
            10 51 46 20
            20 46 41 17
            8 50 40 21
            21 40 7 0
            27 42 50 8
            12 35 42 27
            11 23 34 38
            23 13 31 34
            1 6 48 24
            24 48 52 9
            28 9 52 49
            16 28 49 43
            15 25 47 32
            25 14 53 47
            17 41 37 26
            26 37 53 14
            13 29 33 31
            29 16 43 33
            12 30 36 35
            30 15 32 36
          </DataArray>
          <DataArray type="Int32" Name="offsets" format="ascii" RangeMin="4" RangeMax="192">
            4 8 12 16 20 24 
            28 32 36 40 44 48 
            52 56 60 64 68 72 
            76 80 84 88 92 96 
            100 104 108 112 116 120 
            124 128 132 136 140 144 
            148 152 156 160 164 168 
            172 176 180 184 188 192 
                      </DataArray>
          <DataArray type="UInt8" Name="types" format="ascii" RangeMin="9" RangeMax="9">
            9 9 9 9 9 9 
            9 9 9 9 9 9 
            9 9 9 9 9 9 
            9 9 9 9 9 9 
            9 9 9 9 9 9 
            9 9 9 9 9 9 
            9 9 9 9 9 9 
            9 9 9 9 9 9 
                      </DataArray>
        </Cells>
      </Piece>
    </UnstructuredGrid>
</VTKFile>
